LAMMPS data file via write_data, version 28 Apr 2016, timestep = 25000000

800 atoms
11 atom types
873 bonds
5 bond types
250 angles
3 angle types

-9.4999000000000000e-02 5.3685000000000002e+01 xlo xhi
-9.9989999999999992e-03 5.3770000000000003e+01 ylo yhi
-1.9998999999999999e-02 5.3759999999999998e+01 zlo zhi

Masses

1 73.0718
2 194.277
3 73.0718
4 84.162
5 132.184
6 158.242
7 170.254
8 73.0718
9 132.184
10 170.254
11 73.0718

Atoms # full

578 193 4 0.0000000000000000e+00 5.7958256086019251e+00 1.8731472168376072e+01 5.9392658418480631e+00 0 0 0
240 80 8 0.0000000000000000e+00 5.9085297973942588e+00 5.0603220185116955e+00 4.4416832981003171e+00 0 0 0
445 149 8 0.0000000000000000e+00 7.7271125881587777e+00 2.3614547225218967e+01 2.3263581624181353e+00 0 0 0
418 140 8 0.0000000000000000e+00 2.5386359741212807e+01 2.3955944461381112e+01 7.1306132379458607e+00 0 0 0
799 299 10 0.0000000000000000e+00 2.2569230783754286e+01 5.5871037742226264e+00 8.1304287230581129e-01 0 1 0
17 6 2 0.0000000000000000e+00 1.2985902959191415e+01 1.3503781654980111e+01 5.4023546964012166e+00 0 0 0
18 6 8 0.0000000000000000e+00 1.7759461199808261e+01 1.2990864361884984e+01 3.9238174258671772e+00 0 0 0
324 108 8 0.0000000000000000e+00 6.6215258120425446e-01 1.2300337167083370e+01 7.3089851588787536e+00 0 0 0
745 249 9 0.0000000000000000e+00 1.8249050979356674e+01 2.2385375961857253e+01 2.3459132176167943e+00 0 0 0
420 140 8 0.0000000000000000e+00 2.1811621564961179e+01 1.4120041553512205e+01 3.3383926235808343e+00 0 0 0
615 205 9 0.0000000000000000e+00 2.1419029009567478e+01 1.0382806737011450e+01 6.2616033629426413e+00 0 0 0
601 201 9 0.0000000000000000e+00 1.1440290188837045e+01 1.0598430182439504e+01 1.5533894329871178e+00 0 0 0
285 95 8 0.0000000000000000e+00 9.6212929275499359e-01 1.3065358104430899e+01 2.2939171709200363e+00 0 0 0
153 51 8 0.0000000000000000e+00 1.9562688952478641e+01 1.8679388295284536e+01 5.5943330552658974e+00 0 0 0
151 51 8 0.0000000000000000e+00 2.4161441790843746e+01 1.1223227962594482e+01 1.0276444223434925e+01 0 0 0
419 140 2 0.0000000000000000e+00 2.5974603274645926e+01 1.9337994944114453e+01 2.4937598798311220e+00 0 0 0
203 68 2 0.0000000000000000e+00 1.8873394547300460e+01 1.9349962098062015e+01 5.7276087981166937e+00 0 0 0
446 149 2 0.0000000000000000e+00 3.0238679165870188e+00 2.5716293835611118e+01 4.2754678020963244e+00 1 0 0
284 95 2 0.0000000000000000e+00 2.5607357220142188e+00 1.0862296389071473e+01 6.6191740794513994e+00 0 0 0
672 224 9 0.0000000000000000e+00 2.2933244460192497e+00 8.5173169508226927e+00 3.4399113271037707e+00 0 0 0
577 193 11 0.0000000000000000e+00 3.8665290576119955e+00 2.4056990538975207e+01 8.8988061710578972e+00 0 0 0
747 249 9 0.0000000000000000e+00 1.1329874232828249e+01 2.1954313158081831e+01 9.7284461905347737e+00 0 0 0
614 205 6 0.0000000000000000e+00 2.4344271466728642e+01 1.4930866141503442e+01 6.2125048608009177e+00 0 0 0
314 105 2 0.0000000000000000e+00 1.6732747812451503e+01 3.0315974199395477e+00 9.5498420112359881e+00 0 1 0
32 11 2 0.0000000000000000e+00 8.5560544444103250e+00 1.4011813685770509e+01 9.1650034793905935e+00 0 0 0
204 68 8 0.0000000000000000e+00 1.6237162193916085e+01 2.5211560148605546e+01 6.0252876041136174e+00 0 0 0
313 105 8 0.0000000000000000e+00 1.8775026022979933e+01 3.2724920513089337e+00 4.8458149599216336e+00 0 1 0
746 249 6 0.0000000000000000e+00 1.7938150917233074e+01 2.3970590283526757e+01 9.5318510464938413e+00 0 0 0
781 281 7 0.0000000000000000e+00 4.4880179169082366e+00 1.8680838514125643e+01 6.4762946049439689e+00 0 0 0
16 6 8 0.0000000000000000e+00 8.9240303407403943e+00 9.1315116302228123e+00 5.3318089478056976e+00 0 0 0
579 193 11 0.0000000000000000e+00 6.2974805167982755e+00 1.3597453658999799e+01 5.8747205111630505e+00 0 0 1
31 11 8 0.0000000000000000e+00 5.5612767505681662e+00 1.2806491418734797e+01 5.1060240122660243e+00 0 0 0
202 68 8 0.0000000000000000e+00 1.7160721735133464e+01 1.5937636691626055e+01 1.6840246487009530e-01 0 0 1
44 15 2 0.0000000000000000e+00 2.1178045346672260e+01 4.3099356464340453e+00 6.8316969612203260e-01 0 1 0
43 15 8 0.0000000000000000e+00 2.5597789995203925e+01 1.8344003639241759e+00 9.2984890783682328e-01 0 1 0
370 124 8 0.0000000000000000e+00 1.8581357485939465e-01 2.3663437830538715e+01 8.6102041741133490e+00 1 0 0
702 234 9 0.0000000000000000e+00 4.0251985103634000e+00 2.6120941788205780e+01 3.4957233882609793e+00 0 0 0
613 205 9 0.0000000000000000e+00 2.4006956241710405e+01 1.6045222354327215e+01 1.0577714169377902e+01 0 0 0
152 51 2 0.0000000000000000e+00 2.2823027748035024e+01 1.5939919847331794e+01 1.0561669458176954e+01 0 0 0
178 60 8 0.0000000000000000e+00 1.3381019518329223e+01 2.6124569983830334e+01 1.0361974827678551e+01 0 0 0
259 87 8 0.0000000000000000e+00 2.2911608531400230e+01 1.0471055560459641e+01 9.0513546861476613e-01 0 0 1
541 181 11 0.0000000000000000e+00 2.5991213486025302e+01 1.2016683530970624e+00 4.0980652709552601e-01 0 1 0
272 91 2 0.0000000000000000e+00 2.3280359974242643e+01 1.8454184129414355e+00 1.3183994018936877e+01 0 0 0
327 109 8 0.0000000000000000e+00 4.1536721229478291e+00 1.5896751934848488e+00 1.5904367947625291e+01 0 1 0
774 274 7 0.0000000000000000e+00 1.2099276327797593e+01 2.6056697867482939e+01 1.6657851873200034e+01 0 0 0
33 11 8 0.0000000000000000e+00 4.0713907218072753e+00 1.9984459691765167e+01 1.2654955003742982e+01 0 0 0
11 4 2 0.0000000000000000e+00 1.6093961375197487e+01 1.4526396671527253e+01 1.2580244382457295e+01 0 0 0
326 109 2 0.0000000000000000e+00 5.2551680452330105e+00 6.4483122609826624e-02 2.1205386022294803e+01 0 1 0
505 169 8 0.0000000000000000e+00 2.2297497876249395e+01 1.4856501784310172e+01 1.7372637104914734e+01 0 0 0
786 286 10 0.0000000000000000e+00 2.3309586212418414e+00 1.4583955193363616e+01 1.1448921090542783e+01 0 0 0
489 163 8 0.0000000000000000e+00 9.8101056362696717e+00 1.7240434239388296e+01 1.4393153099075363e+01 0 0 0
488 163 2 0.0000000000000000e+00 4.9292441370053064e+00 1.5972566563955528e+01 1.7794567436355258e+01 0 0 0
531 177 8 0.0000000000000000e+00 1.4489628765051068e+00 2.5919378986682950e+01 1.8971568598966357e+01 1 0 0
315 105 1 0.0000000000000000e+00 1.1492240505182391e+01 5.0077578032932468e+00 1.3766792064919153e+01 0 1 0
574 192 11 0.0000000000000000e+00 2.4028611560067276e-01 6.3387372729783484e+00 1.5555844427818306e+01 1 0 0
545 182 4 0.0000000000000000e+00 4.6447989595807320e+00 2.3020640253550866e+01 1.6490790835168415e+01 0 0 0
439 147 8 0.0000000000000000e+00 2.3129559628938587e+01 8.8633498052313477e+00 1.5431493475406249e+01 0 0 0
12 4 8 0.0000000000000000e+00 2.1457101733157629e+01 1.9317097602671200e+01 1.4850044930093439e+01 0 0 0
190 64 8 0.0000000000000000e+00 2.0869682282944989e+01 1.6919085934231362e+01 1.9879518616628044e+01 0 0 0
546 182 11 0.0000000000000000e+00 1.2488155451212215e+00 2.0404019131075810e+01 1.3133136001680132e+01 0 0 0
755 255 10 0.0000000000000000e+00 2.5960876807674932e+01 1.9499647287969388e+01 1.8222722234279239e+01 0 0 0
69 23 8 0.0000000000000000e+00 1.4826260916165101e+01 1.9401795342366079e+01 1.1052595408338556e+01 0 0 0
28 10 8 0.0000000000000000e+00 1.4888238381573890e+01 2.1258387213444645e+00 1.5778867961913047e+01 0 0 0
283 95 8 0.0000000000000000e+00 5.6913403492799342e+00 1.1446763140461174e+01 1.4563075313765667e+01 0 0 0
662 221 6 0.0000000000000000e+00 1.8007942002693778e+01 2.3045691427817353e+01 2.0578348021388674e+01 0 0 0
142 48 8 0.0000000000000000e+00 3.9199914285029385e+00 1.4315324277636479e+00 1.8602135015869312e+01 0 0 0
10 4 8 0.0000000000000000e+00 1.2078269911806215e+01 1.4068698069540179e+01 1.8151250902768822e+01 0 0 0
143 48 2 0.0000000000000000e+00 3.6212189268142461e+00 4.6555523047807190e+00 1.4069972340796481e+01 1 0 0
179 60 2 0.0000000000000000e+00 1.1159355573705986e+01 2.5494873866191011e+01 1.6719650702470528e+01 0 0 0
695 232 6 0.0000000000000000e+00 1.2278806481893263e+01 1.1881490266788745e+01 1.7691274863747232e+01 0 0 0
440 147 2 0.0000000000000000e+00 2.0075528885896521e+01 6.3576898164364168e+00 2.0951094857820713e+01 0 0 0
456 152 8 0.0000000000000000e+00 1.6748918872352607e+00 1.9368231243321880e+01 1.8523337233873619e+01 1 0 0
694 232 9 0.0000000000000000e+00 9.8034983274297645e+00 1.7389693620209325e+01 1.9171451074092960e+01 0 0 0
180 60 8 0.0000000000000000e+00 1.1835906735066658e+01 2.0439911919676376e+01 1.7243439128369147e+01 0 0 0
112 38 8 0.0000000000000000e+00 6.8712775500412944e+00 1.1224124563203997e+00 2.0720405090294740e+01 0 0 0
583 195 11 0.0000000000000000e+00 6.5598096212776058e+00 2.5721300948244682e+01 1.7014941443567082e+01 0 0 0
725 242 6 0.0000000000000000e+00 2.6244061093811194e+01 7.6116952764099979e-02 1.6408670323590936e+01 0 0 0
68 23 2 0.0000000000000000e+00 1.9015618177641738e+01 2.3331314320106795e+01 1.1728645657165091e+01 0 0 0
49 17 8 0.0000000000000000e+00 9.6803456074888017e-01 5.1774628633221518e+00 2.0262096321669773e+01 0 0 0
113 38 2 0.0000000000000000e+00 1.0753956360076517e+01 5.6130438931376387e+00 2.0519450004852654e+01 0 0 0
355 119 8 0.0000000000000000e+00 2.8567941725697596e+00 6.0820322633309782e+00 2.1377646402045968e+01 1 0 0
611 204 6 0.0000000000000000e+00 4.5817148506739951e+00 2.2289537968302884e+01 3.1287474360299584e+01 1 0 0
366 122 8 0.0000000000000000e+00 2.6386810654448333e+01 1.3022974117568333e+01 3.1965161538968808e+01 0 0 0
291 97 8 0.0000000000000000e+00 8.3278188713381081e+00 7.8546669972113614e+00 3.1031495523068632e+01 0 0 0
241 81 8 0.0000000000000000e+00 2.5319782468756699e+01 2.4924981819986964e+01 2.6766027428472103e+01 0 0 0
191 64 2 0.0000000000000000e+00 2.2061032759430649e+01 1.1899210032691567e+01 2.3177398294466578e+01 0 0 0
533 178 2 0.0000000000000000e+00 1.6418008195300871e+01 2.0685555557452524e+01 2.9461977952257993e+01 0 0 0
212 71 2 0.0000000000000000e+00 1.6618858992280582e+01 7.6626192744751940e+00 2.8536578645662217e+01 0 0 0
290 97 2 0.0000000000000000e+00 5.7439016090415489e+00 5.6027990186628021e+00 2.8257462507790333e+01 0 0 0
787 287 10 0.0000000000000000e+00 4.8521867050473730e+00 2.3636203200123862e+01 2.4221182568388837e+01 0 0 0
461 154 2 0.0000000000000000e+00 2.6509248688437129e+01 2.9157825145246434e+00 2.8809691185244308e+01 0 1 0
527 176 2 0.0000000000000000e+00 1.4834645579789989e+00 8.5853440747522711e+00 3.2043986266356740e+01 1 0 0
656 219 6 0.0000000000000000e+00 1.3250716642021498e+01 9.1007214039390263e+00 2.9900254920942032e+01 0 0 0
657 219 9 0.0000000000000000e+00 1.1929198828144715e+01 4.8214904491518604e+00 2.9325620661648589e+01 0 0 0
612 204 9 0.0000000000000000e+00 2.6792820575054068e+00 1.8526096037436478e+01 3.0571816854785389e+01 0 0 0
661 221 9 0.0000000000000000e+00 2.1787293072805053e+01 2.4657924638624294e+01 2.3333797975946347e+01 0 0 0
192 64 8 0.0000000000000000e+00 1.7491797136496988e+01 8.5920957906170212e+00 2.6708356920002071e+01 0 0 0
213 71 8 0.0000000000000000e+00 1.8661378116647413e+01 1.0100132118739921e+01 2.5030923035847152e+01 0 0 0
58 20 8 0.0000000000000000e+00 1.1067908384302447e+01 1.4758393856812809e+01 2.3718640783645331e+01 0 0 0
510 170 8 0.0000000000000000e+00 9.8970978177468343e+00 2.2380806722285818e+00 2.5747619394561855e+01 0 0 0
51 17 8 0.0000000000000000e+00 4.7689545694698934e+00 1.2517169310859842e+01 2.5641879891004319e+01 0 0 0
457 153 8 0.0000000000000000e+00 1.7202995027721116e+01 1.4745353035219375e+00 2.5748586513368359e+01 0 0 0
225 75 8 0.0000000000000000e+00 5.9537339815970569e-01 2.2783219660480238e+01 2.9572843191808929e+01 0 0 0
655 219 9 0.0000000000000000e+00 7.2664961669549122e+00 1.0793836170162900e+01 2.9430294542244098e+01 0 0 0
441 147 8 0.0000000000000000e+00 1.6431546770955464e+01 3.5968313534862677e+00 2.3750013369738586e+01 0 0 0
528 176 8 0.0000000000000000e+00 4.8823824342517632e+00 4.5290809931837881e+00 2.9608740372735738e+01 0 0 0
534 178 8 0.0000000000000000e+00 1.7265707894286180e+01 2.2583790326086181e+01 2.3888638388856137e+01 0 0 0
733 245 9 0.0000000000000000e+00 2.2082152453444554e+01 9.4219889412660560e+00 2.8181706139640212e+01 0 0 0
224 75 2 0.0000000000000000e+00 1.0474437281770128e+00 1.7844815364235306e+01 3.1817419186827514e+01 0 0 0
59 20 2 0.0000000000000000e+00 4.4677586132063301e+00 1.8936938251185271e+01 2.4097085685781451e+01 0 0 0
114 38 8 0.0000000000000000e+00 1.4376609506680985e+01 1.0097823667121837e+01 2.2052103441394479e+01 0 0 0
242 81 2 0.0000000000000000e+00 2.4102564332796188e+01 1.8069418041170792e+01 2.8012489246032466e+01 0 0 0
211 71 8 0.0000000000000000e+00 1.1296460914513810e+01 8.9373740418824621e+00 2.6953493541847475e+01 0 0 0
50 17 2 0.0000000000000000e+00 2.4533272921035922e+00 8.8934274110085436e+00 2.2679005371893808e+01 0 0 0
696 232 9 0.0000000000000000e+00 1.1327397498229390e+01 1.3670265957919854e+01 2.3442270025194070e+01 0 0 0
759 259 10 0.0000000000000000e+00 8.6061580434187253e+00 6.1780470643544860e-01 3.1629331716219877e+01 1 0 0
289 97 8 0.0000000000000000e+00 4.0677404189622326e+00 4.3547119743345597e-01 2.8307257748651285e+01 0 0 0
632 211 6 0.0000000000000000e+00 1.2196294753204903e+01 2.6810672197110300e+01 3.0459380424468254e+01 0 0 0
460 154 8 0.0000000000000000e+00 2.5398667152657485e+01 3.3428422114648337e+00 2.3708477525628535e+01 0 1 0
526 176 8 0.0000000000000000e+00 -1.1809026082637434e-02 1.3117362254667750e+01 2.8584357400187798e+01 1 0 0
610 204 5 0.0000000000000000e+00 8.0861966993899408e+00 2.4087238915685315e+01 3.4513076269217400e+01 1 0 0
116 39 2 0.0000000000000000e+00 1.0581060846437339e+01 1.4782681043848962e+00 3.6621613757550101e+01 0 0 0
627 209 9 0.0000000000000000e+00 3.8048552856899537e-02 1.4200053452497821e+01 3.8960975685502206e+01 0 0 0
683 228 6 0.0000000000000000e+00 6.5537996521784416e+00 1.3128976574542097e+01 4.1191260405017211e+01 0 0 0
734 245 6 0.0000000000000000e+00 2.5569662746855172e+01 1.1549888640697825e+01 3.4078091668226435e+01 0 0 0
269 90 2 0.0000000000000000e+00 1.5737928026512646e+01 2.4935763889074067e+01 3.8409914124059434e+01 0 0 0
705 235 9 0.0000000000000000e+00 9.8399582056203858e+00 1.5553717911567040e+00 3.7481938446296446e+01 0 0 0
221 74 2 0.0000000000000000e+00 9.6201218926788616e+00 5.5084278990280611e+00 3.9422047825685908e+01 0 0 0
197 66 2 0.0000000000000000e+00 1.2766661170683444e+00 2.1497223978274864e+01 3.8664255096642414e+01 1 0 0
6 2 8 0.0000000000000000e+00 1.6456713263507108e+01 7.1705578845370406e+00 3.9672718867919642e+01 0 0 0
266 89 2 0.0000000000000000e+00 2.3389472727221104e+01 4.2250756746781901e+00 3.7552678440422774e+01 0 0 0
626 209 6 0.0000000000000000e+00 4.7836178751489298e+00 1.4349838156567069e+01 3.5898841088560253e+01 0 0 0
220 74 8 0.0000000000000000e+00 8.0503729869080285e+00 4.9211964161091410e+00 3.4962945886184187e+01 0 0 0
117 39 8 0.0000000000000000e+00 6.8584767777831450e+00 4.7716268577719951e+00 3.8699927683943692e+01 0 0 0
4 2 8 0.0000000000000000e+00 7.8231378849427511e+00 1.1543492185125544e+01 4.0807201500850582e+01 0 0 0
345 115 8 0.0000000000000000e+00 4.5950162800843213e+00 8.5932297309134387e-01 3.5043896476717329e+01 0 1 0
735 245 9 0.0000000000000000e+00 2.4545195533994299e+01 1.5732652052719249e+01 3.5623059625328878e+01 0 0 0
520 174 8 0.0000000000000000e+00 1.6131634944364770e+01 2.0050870076432496e+01 3.9872342677596293e+01 0 0 0
308 103 2 0.0000000000000000e+00 2.0992788128377029e+01 2.3334778884042265e+01 4.2767326532774369e+01 0 0 0
198 66 8 0.0000000000000000e+00 4.0093572895941634e+00 1.6706178809526016e+01 3.7260839131226128e+01 0 0 0
393 131 8 0.0000000000000000e+00 2.4530935437950415e+01 2.0500932810468022e+01 3.7342256924707755e+01 0 0 0
364 122 1 0.0000000000000000e+00 1.9871156577576553e+01 1.5585655639139530e+01 4.2487477678427844e+01 0 0 0
570 190 11 0.0000000000000000e+00 3.8495746739645438e+00 1.9924245933279863e+01 4.0376171863304855e+01 0 0 0
344 115 2 0.0000000000000000e+00 1.8973893995689339e+00 3.0943740655347657e-01 3.7403248400709565e+01 0 0 0
766 266 7 0.0000000000000000e+00 2.4014086199536808e+00 2.4913579989397910e+01 3.9056234442618084e+01 0 0 0
625 209 5 0.0000000000000000e+00 9.7875118526180636e+00 1.7730218382996163e+01 3.4635329156904888e+01 0 0 0
365 122 2 0.0000000000000000e+00 2.4044819673846249e+01 1.1787847641357423e+01 3.8190537670733249e+01 0 0 0
660 220 9 0.0000000000000000e+00 1.8923312603627753e+01 1.9250824350744075e+01 3.5813565204486778e+01 0 0 0
659 220 6 0.0000000000000000e+00 1.4267199498037616e+01 1.4820466439136565e+01 3.8090452231543985e+01 0 0 0
532 178 8 0.0000000000000000e+00 1.3550262485864669e+01 2.1017301610596522e+01 3.4673014425670232e+01 0 0 0
496 166 8 0.0000000000000000e+00 2.5276053569411655e+01 2.5438100696024737e+01 4.1058620173479753e+01 0 0 0
268 90 8 0.0000000000000000e+00 1.4345567725669946e+01 1.8123107055868839e+01 3.8807804895207667e+01 0 0 0
265 89 8 0.0000000000000000e+00 2.6071666189474936e+01 3.1449016936521232e+00 3.4261631543729472e+01 0 0 0
498 166 8 0.0000000000000000e+00 2.2405420252636461e+01 2.6366688637263309e+01 3.4477967522445297e+01 0 0 0
658 220 9 0.0000000000000000e+00 1.2166220516620280e+01 9.3700353092865143e+00 3.9788267486601718e+01 0 0 0
196 66 8 0.0000000000000000e+00 9.7436816528343767e-02 2.4689241638067962e+01 3.4057793673478486e+01 1 0 0
184 62 1 0.0000000000000000e+00 3.8768978427124239e+00 6.1449081074311724e+00 4.2376648237732297e+01 1 0 0
270 90 8 0.0000000000000000e+00 1.1622837245334182e+01 2.5184906053691819e+01 3.9762436620350300e+01 0 0 0
154 52 8 0.0000000000000000e+00 1.3275964142675386e+01 2.6808932302330323e+01 3.3354003927437127e+01 0 0 0
388 130 8 0.0000000000000000e+00 1.8623995090935558e+01 2.5363849322166188e-01 3.8173165421279990e+01 0 0 0
459 153 8 0.0000000000000000e+00 2.1417901951470999e+01 2.7245311950360218e-01 3.4025433121021486e+01 0 0 0
375 125 8 0.0000000000000000e+00 4.5328003397479062e+00 2.6703216692102060e+01 3.2437428662685704e+01 0 0 0
603 201 9 0.0000000000000000e+00 5.7496885836816727e+00 7.6075988809818345e+00 5.0383475022021123e+01 0 0 -1
249 83 8 0.0000000000000000e+00 3.2090946334192991e+00 1.9147118093212420e+01 5.0041004465128637e+01 0 0 0
429 143 8 0.0000000000000000e+00 3.9255981715434607e+00 2.3952237868492972e+01 4.5439561100983845e+01 0 0 0
482 161 2 0.0000000000000000e+00 1.7742845858109517e+00 2.3288153732679923e+01 4.7459342941810881e+01 0 0 0
522 174 8 0.0000000000000000e+00 8.8869031743861822e+00 1.2215091030973429e+01 4.3702088485489412e+01 0 1 0
248 83 2 0.0000000000000000e+00 1.7352301450578602e+00 1.6135194443779167e+01 4.6346480031223528e+01 0 0 0
401 134 2 0.0000000000000000e+00 6.7883589994331288e+00 1.7265766449913876e+01 5.2524660489884148e+01 0 0 -1
684 228 9 0.0000000000000000e+00 2.9711544389104181e+00 1.7274861892788753e+01 4.4931668795599577e+01 0 0 0
83 28 2 0.0000000000000000e+00 1.2705901887214633e+01 1.2482565503737828e+01 5.0449030237883846e+01 0 0 -1
215 72 2 0.0000000000000000e+00 2.5515764964121818e+01 1.7481933393743727e+01 4.4498237479997186e+01 0 0 0
5 2 2 0.0000000000000000e+00 1.4833801114614788e+01 1.1737991791373956e+01 4.4252216517808087e+01 0 0 0
235 79 8 0.0000000000000000e+00 1.4243871988124648e+00 1.6566070185902436e+01 4.9826653695152991e+01 0 0 0
216 72 8 0.0000000000000000e+00 2.2965891158318609e+01 1.9091563304488073e+01 5.0426186398818480e+01 0 0 0
244 82 8 0.0000000000000000e+00 1.8301503150405547e+00 2.2979464701849022e+00 4.5548382351119862e+01 1 0 0
443 148 2 0.0000000000000000e+00 1.4371177921680454e+01 2.6460912773264614e+01 4.8291968241121602e+01 0 0 0
260 87 2 0.0000000000000000e+00 2.4101623963393166e+01 1.3341272094435741e+01 5.1362840313492114e+01 0 0 -1
279 93 8 0.0000000000000000e+00 2.5407205751387355e+01 2.5472793773743298e+01 5.0064423075098610e+01 0 0 0
569 190 4 0.0000000000000000e+00 8.5482990100861738e+00 2.1054284397632298e+01 4.3509313064807912e+01 0 0 0
400 134 8 0.0000000000000000e+00 7.8087116188428309e+00 2.2252631239583014e+01 4.9459461370484703e+01 0 0 -1
307 103 8 0.0000000000000000e+00 2.6007552227586086e+01 2.2289449847878014e+01 4.5337709999880730e+01 0 0 0
45 15 1 0.0000000000000000e+00 1.7967319150717277e+01 3.2911255344707540e+00 5.0860786903348945e+01 0 0 -1
752 252 10 0.0000000000000000e+00 1.7052776125326957e+01 1.9435481829731888e+01 5.0220803136936979e+01 0 0 0
46 16 8 0.0000000000000000e+00 2.2498011776614792e+01 2.0543401039389902e+01 5.0008139793943855e+01 0 0 0
568 190 11 0.0000000000000000e+00 1.2612609445957869e+01 2.2201926652065392e+01 4.5783065011325839e+01 0 0 0
602 201 6 0.0000000000000000e+00 1.1920772999413575e+01 7.3085607561591281e+00 5.3196334792069081e+01 0 0 0
222 74 8 0.0000000000000000e+00 1.0786794413803266e+01 6.2954646935861067e+00 4.3298096218760278e+01 0 0 0
84 28 8 0.0000000000000000e+00 1.2286464170040523e+01 1.8079736892913875e+01 5.0392866330898727e+01 0 0 -1
751 251 10 0.0000000000000000e+00 3.4458293470557786e+00 2.6572078851923973e+01 5.0322382472479603e+01 0 0 0
26 9 2 0.0000000000000000e+00 2.2105087774370766e+01 3.0525420863744683e+00 4.6308850175222020e+01 0 0 0
185 62 2 0.0000000000000000e+00 5.4203654362425855e+00 7.4963310159921503e+00 4.7897267341021291e+01 0 0 0
261 87 1 0.0000000000000000e+00 2.2721903838343906e+01 1.2046248918108022e+01 4.5106039922155752e+01 0 0 0
682 228 9 0.0000000000000000e+00 4.2795416421294528e+00 1.0177510610088492e+01 4.3732052131698417e+01 0 0 0
389 130 2 0.0000000000000000e+00 1.4748231225228166e+01 7.7679436716820949e-01 4.3791476020897278e+01 0 0 0
25 9 1 0.0000000000000000e+00 1.9338409756961216e+01 7.9001729394995026e+00 4.9018451195980553e+01 0 0 0
37 13 1 0.0000000000000000e+00 1.4189816317814644e+01 1.3100318297823321e-02 5.3093109775671849e+01 0 1 0
82 28 8 0.0000000000000000e+00 1.5946490791785640e+01 1.0226904100131206e+01 5.3758051426308789e+01 0 0 -1
186 62 8 0.0000000000000000e+00 9.1201966436651158e+00 4.7699355758549373e+00 5.3160633995064856e+01 0 0 0
444 148 8 0.0000000000000000e+00 1.9607034827178005e+01 2.5954504500967410e+01 4.9871582676243953e+01 0 0 0
390 130 8 0.0000000000000000e+00 1.2684725933404289e+01 3.7268203345105340e+00 4.8819747938165982e+01 0 0 0
521 174 2 0.0000000000000000e+00 1.1189952176668658e+01 1.6767081106555189e+01 4.3134926065996702e+01 0 0 0
245 82 2 0.0000000000000000e+00 4.3234660649635492e-01 2.4805890359841900e+00 5.0274049941572578e+01 1 0 0
402 134 8 0.0000000000000000e+00 4.2205167939065289e+00 1.1989016702469591e+01 5.2044269728163329e+01 0 0 -1
777 277 10 0.0000000000000000e+00 1.6100358687622979e+01 1.2932902931739234e+00 4.4840116025054378e+01 0 0 0
236 79 2 0.0000000000000000e+00 9.2806477769939333e-01 1.9474555489542453e+01 5.3698653980433797e+01 0 0 0
267 89 8 0.0000000000000000e+00 2.0604822204813470e+01 4.4430646896333377e+00 4.3880151243487070e+01 0 0 0
617 206 6 0.0000000000000000e+00 8.9128005087819542e+00 4.6893653067523964e+01 3.6511610557785517e+00 0 0 0
717 239 9 0.0000000000000000e+00 2.6638769886109475e+01 3.3737487528467874e+01 7.8917724133621796e+00 0 0 0
624 208 9 0.0000000000000000e+00 1.7585515851802782e+01 5.0933076569205127e+01 5.2042051683348882e+00 0 0 1
517 173 8 0.0000000000000000e+00 1.5682066980404151e+01 4.9721303582459790e+01 1.0171300004488680e+01 0 -1 1
623 208 6 0.0000000000000000e+00 2.3183894519418601e+01 5.2223469278874305e+01 5.9028741697256120e+00 0 0 1
255 85 8 0.0000000000000000e+00 1.8966392429536100e+01 5.3081093834577239e+01 8.9362258658874827e-01 0 -1 1
38 13 2 0.0000000000000000e+00 1.0059186793546836e+01 5.3230525191108278e+01 1.9080892504735101e+00 0 0 1
239 80 2 0.0000000000000000e+00 2.1615622292998649e+00 5.3479587591097882e+01 3.7817335328115136e+00 0 -1 0
139 47 8 0.0000000000000000e+00 2.1464182541755903e+01 5.3626557677819584e+01 5.3664491325472357e+00 0 0 1
715 239 9 0.0000000000000000e+00 2.4815630520521299e+01 2.8163863711079244e+01 3.8268543502776411e+00 0 0 0
673 225 5 0.0000000000000000e+00 1.5557497269064537e+00 5.2394169261567598e+01 4.9419437146753857e+00 1 -1 0
535 179 8 0.0000000000000000e+00 1.2590835183263662e+00 3.7746332918802061e+01 7.9980592359532290e+00 1 0 0
238 80 8 0.0000000000000000e+00 3.3525065160271232e+00 4.8226181521178262e+01 6.6845271219352300e+00 1 -1 0
592 198 11 0.0000000000000000e+00 1.5472961903977080e+01 4.4124015304405368e+01 9.0366287893843094e+00 0 0 0
55 19 8 0.0000000000000000e+00 1.7393356445746837e+00 4.0038061939102484e+01 1.8331769877789947e+00 0 0 0
622 208 9 0.0000000000000000e+00 2.0368325135808892e+01 4.8076694270826863e+01 9.0333520818072479e+00 0 0 1
700 234 5 0.0000000000000000e+00 7.5581677884639529e+00 3.6789373372558018e+01 1.0881030915510803e+00 0 0 1
67 23 8 0.0000000000000000e+00 2.2953671896152937e+01 2.9893184363539287e+01 7.7050419592245705e+00 0 0 0
719 240 6 0.0000000000000000e+00 7.2070492020563464e+00 4.0246801518898756e+01 9.3682791720166847e+00 0 0 0
716 239 6 0.0000000000000000e+00 2.4391565608434693e+01 2.8278267044761822e+01 9.4372653505428676e+00 0 0 0
140 47 2 0.0000000000000000e+00 1.8158545730123670e+01 4.9811803153588983e+01 2.6663213418487075e+00 0 0 1
618 206 9 0.0000000000000000e+00 1.1627914418308491e+01 4.3999803673187010e+01 2.0864159138853240e+00 0 0 0
543 181 11 0.0000000000000000e+00 2.3550209323925063e+01 4.7308811796368474e+01 5.6429194454333924e+00 0 0 0
427 143 8 0.0000000000000000e+00 1.9263727486694824e+00 3.0197366957287407e+01 1.2402289811453258e+00 0 0 0
542 181 4 0.0000000000000000e+00 2.4802846631347496e+01 5.0460568827142680e+01 2.3946384550977835e+00 0 0 0
593 198 4 0.0000000000000000e+00 1.4907444901346082e+01 4.3407321492666703e+01 4.9971047926875682e+00 0 0 0
594 198 11 0.0000000000000000e+00 1.3999826269533186e+01 3.9937422413547814e+01 1.1993053552995876e+00 0 0 0
646 216 9 0.0000000000000000e+00 1.1520263520352880e+00 3.3520090604879208e+01 5.0508386498458488e+00 0 0 0
183 61 8 0.0000000000000000e+00 7.4679394341106997e+00 3.6969741755447217e+01 8.6078255857704384e+00 0 0 0
182 61 2 0.0000000000000000e+00 4.9511592140488805e+00 3.2563323431238565e+01 8.4913236985590128e+00 0 0 0
649 217 9 0.0000000000000000e+00 1.8806639365743866e+01 4.0196478716806254e+01 9.7675384785991852e+00 0 0 0
616 206 9 0.0000000000000000e+00 3.1026400071300873e+00 4.7853246256789539e+01 1.9174445760401677e+00 0 0 0
701 234 6 0.0000000000000000e+00 3.7335308884755385e+00 3.1611508245323019e+01 7.5540007631608375e-01 0 0 1
57 19 8 0.0000000000000000e+00 8.2764438684275952e+00 3.2065928075584019e+01 2.0635768590157841e+00 0 0 0
141 47 1 0.0000000000000000e+00 1.5117979997432061e+01 4.5365763579304549e+01 4.0233119406118334e-01 0 0 1
718 240 9 0.0000000000000000e+00 1.4421519534453388e+01 4.0361387541905479e+01 1.3125217965053633e+01 0 0 0
303 101 8 0.0000000000000000e+00 2.2632370146754877e+01 4.0579695400891133e+01 1.3204448141718881e+01 0 0 0
432 144 8 0.0000000000000000e+00 4.1232262984702901e+00 5.3499567145483581e+01 1.5009396382626532e+01 0 0 0
648 216 9 0.0000000000000000e+00 3.4359721840563845e-01 3.8201326593257470e+01 1.5497256439513265e+01 1 0 0
75 25 8 0.0000000000000000e+00 6.0140921440454209e-01 5.1253372912676213e+01 2.0243986022576987e+01 0 0 0
207 69 8 0.0000000000000000e+00 2.0245715817527362e+01 4.8706541406926810e+01 2.0872776600662466e+01 0 0 0
205 69 8 0.0000000000000000e+00 2.4602406391285498e+01 4.9084828212864231e+01 1.2183370614177468e+01 0 -1 0
584 195 4 0.0000000000000000e+00 5.5214520609923330e+00 3.0302496274226886e+01 1.5700377897726582e+01 0 0 0
320 107 2 0.0000000000000000e+00 1.0049670285651732e+01 4.1727500207225418e+01 1.9941764467526479e+01 0 0 0
544 182 11 0.0000000000000000e+00 7.0821248942790627e+00 2.7633867754909112e+01 1.5970218883461330e+01 0 0 0
764 264 10 0.0000000000000000e+00 1.7097368653195829e+01 5.3413828603850803e+01 2.0569850853824001e+01 0 0 0
800 300 10 0.0000000000000000e+00 6.5953922230054580e+00 4.9975730324088339e+01 1.8059450678069002e+01 0 0 0
369 123 8 0.0000000000000000e+00 9.4018605171096610e+00 3.2888697874148306e+01 2.0074216394181640e+01 0 0 0
431 144 2 0.0000000000000000e+00 1.3853785177035718e+00 4.8051991087370787e+01 1.2663234457057017e+01 0 -1 0
319 107 8 0.0000000000000000e+00 3.7657833249702044e+00 4.1246906789920821e+01 1.6412059551683146e+01 0 0 0
530 177 2 0.0000000000000000e+00 1.7124858810927877e+00 2.8274080879660346e+01 1.3068692194212545e+01 1 0 0
325 109 8 0.0000000000000000e+00 3.4175241842107535e+00 4.9714107319034660e+01 1.7903786890558571e+01 0 -1 0
767 267 10 0.0000000000000000e+00 8.1254140274450624e+00 3.8583515779003974e+01 1.9052432587814636e+01 0 0 0
651 217 9 0.0000000000000000e+00 2.4535298786608685e+01 3.4475735005676697e+01 1.7792686009883642e+01 0 0 0
772 272 10 0.0000000000000000e+00 8.4966356285761491e-01 2.7315081728730860e+01 1.3506530889144450e+01 1 0 0
302 101 2 0.0000000000000000e+00 1.7631971499095293e+01 3.6029556418827084e+01 1.3242423816107257e+01 0 0 0
650 217 6 0.0000000000000000e+00 2.1012623008087786e+01 3.8007923028049639e+01 1.3156785122736608e+01 0 0 0
720 240 5 0.0000000000000000e+00 4.3779789492429328e+00 3.5807982880237873e+01 1.2072596861423129e+01 0 0 0
585 195 11 0.0000000000000000e+00 9.0960063979728574e+00 3.3303293734504152e+01 1.9916085342851421e+01 0 0 0
726 242 9 0.0000000000000000e+00 2.1695641532776683e+01 5.2855675716005543e+01 1.4312248019523709e+01 0 -1 0
206 69 2 0.0000000000000000e+00 2.0644455811684168e+01 4.6919781030992581e+01 1.5829056451072704e+01 0 -1 0
273 91 8 0.0000000000000000e+00 1.7045857033285625e+01 5.3125422496205424e+01 1.2959017192208295e+01 0 -1 0
586 196 11 0.0000000000000000e+00 1.3368655724511951e+01 3.7056428676104240e+01 1.6220232696701199e+01 0 0 0
519 173 8 0.0000000000000000e+00 3.6509072682799344e+00 4.7933151545121888e+01 1.1931556008806272e+01 0 -1 0
301 101 8 0.0000000000000000e+00 1.3012674375358365e+01 3.8381049036691657e+01 1.6956012769600555e+01 0 0 0
588 196 11 0.0000000000000000e+00 8.6771609723835930e+00 3.5541289254402585e+01 1.4375190545200354e+01 0 0 0
54 18 8 0.0000000000000000e+00 1.6958424307537321e+01 4.1107124600630421e+01 1.8713619015705088e+01 0 0 0