LAMMPS data file via write_data, version 15 May 2015, timestep = 250076

800 atoms
11 atom types
500 bonds
5 bond types
250 angles
3 angle types
11 atom types
8 extra bond per atom
8 extra angle per atom
8 extra dihedral per atom
400 extra special per atom

-9.4999000000000000e-02 5.3685000000000002e+01 xlo xhi
-9.9989999999999992e-03 5.3770000000000003e+01 ylo yhi
-1.9998999999999999e-02 5.3759999999999998e+01 zlo zhi

 Bond Coeffs

 1 bond1.xvg BOND1_TABLE
 2 bond2.xvg BOND2_TABLE
 3 bond3.xvg BOND3_TABLE
 4 bond4.xvg BOND4_TABLE
 5 bond5.xvg BOND5_TABLE

 Angle Coeffs

 1 angle1.xvg ANGLE1_TABLE #A-B-A
 2 angle2.xvg ANGLE2_TABLE #E-F-E
 3 angle3.xvg ANGLE3_TABLE #H-I-H

 Masses

 1 73.071800 # A
 2 194.276993 # B
 3 73.071800 # E
 4 84.161995 # F
 5 132.183502 # H
 6 158.241791 # I
 7 170.253998 # K
 8 73.071800 # A
 9 132.183502 # H
10 170.253998 # K
11 73.071800 # E

Atoms # full

16 6 1 0.0000000000000000e+00 1.7926805868437057e+01 1.0941086037620702e+01 7.0659860735411071e+00 0 0 0
178 60 1 0.0000000000000000e+00 1.8280627359461178e+01 1.9427902338082198e+01 9.3252017156108344e+00 0 0 0
114 38 1 0.0000000000000000e+00 1.2256651217861648e+01 6.7580928340036062e+00 9.0082748942439608e+00 0 0 0
67 23 1 0.0000000000000000e+00 1.8565362821919372e+01 1.7122977183879648e+01 4.4525520462157200e+00 0 0 0
68 23 2 0.0000000000000000e+00 1.1970304649496393e+01 1.8743704453262666e+01 7.3969037757155460e+00 0 0 0
324 108 1 0.0000000000000000e+00 6.5744509087117819e-02 1.4915729358952976e+01 4.7820805359514882e+00 0 0 0
82 28 1 0.0000000000000000e+00 1.4920673696984410e+01 1.3548765190717491e+01 1.8642725881818176e+00 0 0 0
83 28 2 0.0000000000000000e+00 2.0122693269403509e+01 1.3665616958998035e+01 1.8407370028591810e+00 0 0 0
84 28 1 0.0000000000000000e+00 2.4822248605118460e+01 1.4012290093491357e+01 7.3239943885440340e-01 0 0 0
745 249 5 0.0000000000000000e+00 2.2581275898179054e+01 2.3578291527212340e+01 5.6335774974362733e+00 0 0 0
69 23 1 0.0000000000000000e+00 1.3582609034893826e+01 2.4350602369749328e+01 9.9934967267573676e+00 0 0 0
781 281 7 0.0000000000000000e+00 5.9168027619658607e+00 2.3502572491897560e+01 9.1521641424708857e+00 0 0 0
203 68 2 0.0000000000000000e+00 1.5681183768633106e+01 1.9303664820808539e+01 4.2519493232398331e-01 0 0 0
204 68 1 0.0000000000000000e+00 1.8891434162968647e+01 2.3178023523066816e+01 2.5451188764482691e+00 0 0 0
507 169 1 0.0000000000000000e+00 2.2267528754922264e+01 6.8008936222843568e+00 1.9937500076715198e+00 0 0 0
162 54 1 0.0000000000000000e+00 1.4991511667158093e+00 5.1996389738082440e+00 1.0361371504667696e+00 0 0 1
273 91 1 0.0000000000000000e+00 1.7450298641350006e+01 3.2478987283838627e+00 1.0166210707385369e+01 0 0 0
283 95 1 0.0000000000000000e+00 1.1166677627781647e+01 1.2751149913700894e+01 3.3512332582218609e+00 0 0 0
284 95 2 0.0000000000000000e+00 7.0348030486797324e+00 8.8173517743712999e+00 4.9621215494566515e+00 0 0 0
285 95 1 0.0000000000000000e+00 4.3058537236420813e+00 4.7793919589922007e+00 4.5449626754878398e+00 0 0 0
427 143 1 0.0000000000000000e+00 9.2571313725563904e+00 2.3123108272770214e+01 1.0847801435530406e+00 0 0 0
272 91 2 0.0000000000000000e+00 2.1287601657136090e+01 7.6782796561541486e+00 9.4309194809249295e+00 0 0 0
717 239 5 0.0000000000000000e+00 2.4130865063541368e+01 2.6816480213877831e+01 9.8409792442128499e+00 0 0 0
615 205 5 0.0000000000000000e+00 2.3821477866005445e+01 1.4368437629154306e+01 7.5220870729144238e+00 0 0 0
577 193 3 0.0000000000000000e+00 1.9857891312394232e-01 2.0655797575415313e+01 6.9983540300395664e+00 0 0 0
18 6 1 0.0000000000000000e+00 2.3473407381183726e+01 1.8157669569290199e+01 8.8041704382411030e+00 0 0 0
420 140 1 0.0000000000000000e+00 2.4941909894563057e+01 1.8942197879616376e+01 2.6468467852373623e+00 0 0 0
746 249 6 0.0000000000000000e+00 1.8299459284791538e+01 2.5806773509680710e+01 1.0556742020164144e+01 0 0 0
33 11 1 0.0000000000000000e+00 8.9602613893309719e+00 1.4249184628584054e+01 1.0305216194286986e+01 0 0 0
506 169 2 0.0000000000000000e+00 2.6009281846765486e+01 9.6244597186312930e+00 2.8513323639344264e+00 0 0 0
786 286 7 0.0000000000000000e+00 4.9831761428934680e+00 1.6153626426698253e+01 6.3797110298728459e+00 0 0 0
671 224 6 0.0000000000000000e+00 1.6794156173766648e+00 1.1257249500887854e+01 3.2739277307983325e+00 0 0 0
519 173 1 0.0000000000000000e+00 9.7208566538140300e+00 5.1732736954985548e+00 5.9782332229350326e+00 0 0 0
30 10 1 0.0000000000000000e+00 1.0115316601234770e+01 3.2072058592754575e-02 8.6981038448618317e+00 0 1 0
578 193 4 0.0000000000000000e+00 3.3747061370239031e+00 2.1880043413518884e+01 2.8527174378575997e+00 0 0 0
601 201 5 0.0000000000000000e+00 1.4991193744741024e+01 7.0503733775485440e+00 2.7579998126092309e+00 0 0 0
401 134 2 0.0000000000000000e+00 9.6555029259899321e+00 1.8404230300745564e+01 7.7172777919598790e-01 0 0 0
430 144 1 0.0000000000000000e+00 6.7434566709370083e+00 4.8728942282410372e+00 1.0125013720443093e+01 0 0 0
672 224 5 0.0000000000000000e+00 6.9501269533150023e-01 9.5716281788406743e+00 7.3274842291278146e+00 0 0 0
259 87 1 0.0000000000000000e+00 2.5855833787906519e+01 2.4884745292276214e+00 4.1825193685965862e+00 0 0 1
541 181 3 0.0000000000000000e+00 1.7770486646581585e+01 1.4042173849082831e-01 4.3443631329286063e+00 0 1 0
428 143 2 0.0000000000000000e+00 1.3266587238048235e+01 2.5227029142315057e+01 2.8367160774311401e-01 0 0 0
240 80 1 0.0000000000000000e+00 2.4229563303874473e+00 1.2252682198902793e+01 1.0638183432255930e+01 0 0 0
579 193 3 0.0000000000000000e+00 1.8947920643041258e+00 1.8618993452352935e+01 3.7761321223246824e-01 0 0 1
755 255 7 0.0000000000000000e+00 2.3181035977014705e+01 1.6037172428964155e+01 1.8345647874414944e+01 0 0 0
11 4 2 0.0000000000000000e+00 2.1097752499471593e+01 2.1688120836309370e+01 1.6742614642884146e+01 0 0 0
12 4 1 0.0000000000000000e+00 2.1780692632111570e+01 2.2187334764608291e+01 1.2233841959955974e+01 0 0 0
28 10 1 0.0000000000000000e+00 1.5484520816775882e+01 5.7775717154787545e+00 1.3057257248911991e+01 0 0 0
29 10 2 0.0000000000000000e+00 1.2490974897342864e+01 4.8337865064859525e-01 1.2208599488747762e+01 0 0 0
17 6 2 0.0000000000000000e+00 2.0191724116311967e+01 1.4448878850049400e+01 1.1200446550378532e+01 0 0 0
32 11 2 0.0000000000000000e+00 1.0737005742384618e+01 1.4276747172881100e+01 1.6213733552914402e+01 0 0 0
441 147 1 0.0000000000000000e+00 1.8144661027049800e+01 2.7865719361826535e+00 2.0557468027586360e+01 0 0 0
49 17 1 0.0000000000000000e+00 5.6847446551450975e+00 1.0805357235056215e+01 1.7724837636859043e+01 0 0 0
58 20 1 0.0000000000000000e+00 1.2851540196205907e+01 2.3306920693985305e+01 1.4918392931029880e+01 0 0 0
59 20 2 0.0000000000000000e+00 7.2388619511839671e+00 1.8963583435401834e+01 1.8755918185332163e+01 0 0 0
112 38 1 0.0000000000000000e+00 1.4468252619721779e+01 1.1200647396555256e+01 1.2893914718698342e+01 0 0 0
113 38 2 0.0000000000000000e+00 1.0267516422821956e+01 8.2390009722198929e+00 1.2988106189623675e+01 0 0 0
545 182 4 0.0000000000000000e+00 8.1645384058423289e+00 2.1314954876092163e+01 1.5469921604504204e+01 0 0 0
726 242 5 0.0000000000000000e+00 2.2855690932999874e+01 3.1638717326119767e+00 1.5165610825715888e+01 0 0 0
179 60 2 0.0000000000000000e+00 1.6357193916104986e+01 1.8931546462282260e+01 1.3165054388731608e+01 0 0 0
180 60 1 0.0000000000000000e+00 1.3595620228030697e+01 1.8658229075965203e+01 1.7682245439015226e+01 0 0 0
544 182 3 0.0000000000000000e+00 9.7894870390200133e+00 2.6209354872002830e+01 1.8564736776144375e+01 0 0 0
191 64 2 0.0000000000000000e+00 1.6189204545705323e+01 1.0904366709311960e+01 2.1102248665401678e+01 0 0 0
239 80 2 0.0000000000000000e+00 -4.3154378874496101e-02 7.8394314618410172e+00 1.4043181305594757e+01 0 0 0
432 144 1 0.0000000000000000e+00 3.6966845917673377e+00 6.2724465265576583e+00 1.8222726243205187e+01 0 1 0
456 152 1 0.0000000000000000e+00 1.0268415435761973e+00 1.3755154684957823e+01 1.9855076963303919e+01 1 0 0
271 91 1 0.0000000000000000e+00 2.5228379875628637e+01 1.0325859124806438e+01 1.5304175600291417e+01 0 0 0
142 48 1 0.0000000000000000e+00 2.8923234747890834e+00 2.4993225799087160e+00 1.4413764098757122e+01 0 0 0
440 147 2 0.0000000000000000e+00 2.0539935707014067e+01 7.2575435219813746e+00 1.9129722841970615e+01 0 0 0
431 144 2 0.0000000000000000e+00 7.0331021648802663e+00 4.5342982811724051e+00 1.4675586141028152e+01 0 0 0
439 147 1 0.0000000000000000e+00 2.4745953999814656e+01 9.2910438334925995e+00 2.0482008862212542e+01 0 0 0
10 4 1 0.0000000000000000e+00 1.5575931412480521e+01 2.2650851514225977e+01 1.8857428124862253e+01 0 0 0
546 182 3 0.0000000000000000e+00 5.2761898043232236e+00 1.7525373307792385e+01 1.2396423899111369e+01 0 0 0
457 153 1 0.0000000000000000e+00 1.3196827085685694e+01 1.9515253437813520e+00 1.8078511183576357e+01 0 0 0
488 163 2 0.0000000000000000e+00 1.2678763028441504e+00 2.4994738125684108e+01 1.8494550713137336e+01 0 0 0
190 64 1 0.0000000000000000e+00 1.4538564338395933e+01 6.5736294695817268e+00 1.9402080215590566e+01 0 0 0
8 3 2 0.0000000000000000e+00 9.4894325868326646e-01 2.4722107586076422e+01 2.8823648307229522e+01 0 0 0
198 66 1 0.0000000000000000e+00 1.9674750510358203e+00 1.8810446201545648e+01 3.1680809624192509e+01 0 0 0
51 17 1 0.0000000000000000e+00 1.0448096971272193e+01 9.0024104914192833e+00 2.3214880310590694e+01 0 0 0
9 3 1 0.0000000000000000e+00 2.2820512687336247e-01 2.0821578846565277e+01 2.5079045017317092e+01 1 0 0
101 34 2 0.0000000000000000e+00 2.6241526996529604e+01 1.5723886751482752e-01 2.7436295161627452e+01 0 0 0
115 39 1 0.0000000000000000e+00 4.3790332330965711e+00 3.3792040007794610e+00 2.9002725079561149e+01 0 0 0
100 34 1 0.0000000000000000e+00 2.3948148467102190e+01 3.8474984678008659e+00 2.4251344344205815e+01 0 0 0
175 59 1 0.0000000000000000e+00 2.9003125194002575e+00 1.6111071788772087e+01 2.6253405586946158e+01 0 0 0
176 59 2 0.0000000000000000e+00 7.2545695511228248e+00 1.9650661933360574e+01 2.7313823896994258e+01 0 0 0
681 227 5 0.0000000000000000e+00 2.6341635557777305e+01 2.0147920525797772e+01 2.3288382462946512e+01 0 0 0
463 155 1 0.0000000000000000e+00 2.6614273046709652e+01 8.6488789073191121e+00 3.0013929035881958e+01 0 0 0
7 3 1 0.0000000000000000e+00 4.0993009067777075e+00 2.3577746693979606e+01 2.6627756521887129e+01 0 0 0
212 71 2 0.0000000000000000e+00 1.2649788794985858e+01 1.2678495931523560e+01 2.9848768720972632e+01 0 0 0
661 221 5 0.0000000000000000e+00 2.0705825934415220e+01 2.5529999491187514e+01 2.4387200034861330e+01 0 0 0
225 75 1 0.0000000000000000e+00 6.6757649585197569e+00 1.2693223463671606e+01 2.7907008782217467e+01 0 0 0
289 97 1 0.0000000000000000e+00 6.1047851439670140e+00 5.2192267759617383e+00 2.3416805063222260e+01 0 0 0
290 97 2 0.0000000000000000e+00 7.8567618529823156e+00 6.9645639888914710e+00 2.7630970805531067e+01 0 0 0
291 97 1 0.0000000000000000e+00 1.3997981062077775e+01 8.6459605644977717e+00 2.6289926548704805e+01 0 0 0
373 125 1 0.0000000000000000e+00 1.0416790471483758e+01 2.6632749296540304e+01 2.5774965790299145e+01 0 0 0
527 176 2 0.0000000000000000e+00 1.4142642100575462e+00 9.4829452276900383e+00 2.5737634188872089e+01 1 0 0
458 153 2 0.0000000000000000e+00 1.2307281801372927e+01 2.8528027068884994e+00 2.3219572172820172e+01 0 0 0
459 153 1 0.0000000000000000e+00 1.4658043018818848e+01 3.4284294605821724e+00 2.7667723611889745e+01 0 0 0
269 90 2 0.0000000000000000e+00 2.0400079648047040e+01 2.1897144261183861e+01 3.0819799753238463e+01 0 0 0
509 170 2 0.0000000000000000e+00 2.1382096753117946e+01 5.7438759513736874e+00 2.8873162426723432e+01 0 0 0
510 170 1 0.0000000000000000e+00 1.8021733346167753e+01 6.3050803404547837e+00 2.7903183428624512e+01 0 0 0
528 176 1 0.0000000000000000e+00 1.5232071812840011e+00 5.5013799105284606e+00 2.4605675388822750e+01 0 0 0
733 245 5 0.0000000000000000e+00 1.8750247803969451e+01 1.6966042247254677e+01 2.8866685213556650e+01 0 0 0
734 245 6 0.0000000000000000e+00 2.4530334540853833e+01 1.6079820293487920e+01 3.0624680245263836e+01 0 0 0
533 178 2 0.0000000000000000e+00 1.4046706431228751e+01 2.3575648419117439e+01 2.9022524922594897e+01 0 0 0
657 219 5 0.0000000000000000e+00 1.9985294036911807e+01 1.0646188550672266e+01 2.7478196204598216e+01 0 0 0
192 64 1 0.0000000000000000e+00 1.8257991698266860e+01 1.5403398098436391e+01 2.3234528432892738e+01 0 0 0
679 227 5 0.0000000000000000e+00 2.3625264777968777e+01 1.1899131184403572e+01 2.4632149213433102e+01 0 0 0
680 227 6 0.0000000000000000e+00 2.2923542335317471e+01 1.6567453485432456e+01 2.4748667940369163e+01 0 0 0
50 17 2 0.0000000000000000e+00 6.8821646579810283e+00 1.0366672998509809e+01 2.1763863349042659e+01 0 0 0
694 232 5 0.0000000000000000e+00 1.2651958981399943e+01 1.9318034914860899e+01 2.4449749717099504e+01 0 0 0
695 232 6 0.0000000000000000e+00 1.8169855554276111e+01 2.2123680411449651e+01 2.3491170675520621e+01 0 0 0
526 176 1 0.0000000000000000e+00 2.2630311668650891e+00 8.7762566788326861e+00 2.8645284046689365e+01 1 0 0
211 71 1 0.0000000000000000e+00 1.3328012507472017e+01 7.2843888212432457e+00 3.1320316395258260e+01 0 0 0
116 39 2 0.0000000000000000e+00 8.4746357515144339e+00 2.9525950249300590e+00 3.0954181176787813e+01 0 0 0
628 210 5 0.0000000000000000e+00 1.8507549285212150e+01 3.3221439086671173e-01 2.6188053182242310e+01 0 0 0
60 20 1 0.0000000000000000e+00 3.4449908310905299e+00 1.9786776629022338e+01 2.1872874015812936e+01 0 0 0
213 71 1 0.0000000000000000e+00 1.2001598358216029e+01 1.8293258350571914e+01 3.1879402058018321e+01 0 0 0
489 163 1 0.0000000000000000e+00 6.9325638034334194e+00 2.4557067746872043e+01 2.1864440728090017e+01 0 0 0
31 11 1 0.0000000000000000e+00 1.2750112064430633e+01 1.4957716226569516e+01 2.1567626011835657e+01 0 0 0
627 209 5 0.0000000000000000e+00 5.2556831193442282e+00 1.9172633181158762e+01 3.6672009569568985e+01 0 0 0
443 148 2 0.0000000000000000e+00 2.0547754477752342e+01 2.5176492203006696e+01 3.8775174401776312e+01 0 0 0
108 36 1 0.0000000000000000e+00 7.0564981838935548e-01 1.4371893458606237e+01 3.6704829766692178e+01 0 0 0
117 39 1 0.0000000000000000e+00 5.3242711379030832e+00 3.2937234394387698e+00 3.7248399918834451e+01 0 0 0
705 235 5 0.0000000000000000e+00 1.5013137659945810e+01 3.1041424324209372e+00 3.4589409417770000e+01 0 0 0
497 166 2 0.0000000000000000e+00 1.1661141336469075e+01 2.6055533274435266e+01 3.3953116438610401e+01 0 0 0
344 115 2 0.0000000000000000e+00 1.5027615503224721e+00 4.8506162685226570e+00 3.3941584275975032e+01 0 0 0
221 74 2 0.0000000000000000e+00 6.7867360664159735e+00 7.1568968638999033e+00 3.9786628059810958e+01 0 0 0
222 74 1 0.0000000000000000e+00 1.1883327697704468e+01 8.9015211106497070e+00 3.5767938211206420e+01 0 0 0
223 75 1 0.0000000000000000e+00 7.0846780564997056e+00 7.3054832706329664e+00 3.5106616396301504e+01 0 0 0
268 90 1 0.0000000000000000e+00 1.9680987844477691e+01 1.7311186999455273e+01 3.5605298738574042e+01 0 0 0
270 90 1 0.0000000000000000e+00 1.8998088991157488e+01 2.6187383194112677e+01 3.2482217746202153e+01 0 0 0
569 190 4 0.0000000000000000e+00 2.0884218793965497e+00 2.1515310989936726e+01 3.9798268833368155e+01 0 0 0
343 115 1 0.0000000000000000e+00 1.8526603950472500e+00 9.2567794162412120e+00 3.7539460376860497e+01 0 0 0
224 75 2 0.0000000000000000e+00 4.5155525004284494e+00 1.2345349220252061e+01 3.2287765729477556e+01 0 0 0
706 236 5 0.0000000000000000e+00 7.9657498776725095e+00 2.6616900690784412e+01 3.9062111899344885e+01 0 0 0
684 228 5 0.0000000000000000e+00 1.5578653717079389e+01 1.5216111367046723e+01 4.2358023516391889e+01 0 0 0
389 130 2 0.0000000000000000e+00 2.4567290186222902e+01 3.4204755011379500e+00 3.7502249450477748e+01 0 0 0
307 103 1 0.0000000000000000e+00 2.6475874123212343e+01 2.3077450694131578e+01 3.8937110868815402e+01 0 0 0
184 62 1 0.0000000000000000e+00 1.7576159812940024e+00 4.0054268726484832e+00 4.0317525276071343e+01 1 0 0
442 148 1 0.0000000000000000e+00 2.1421860628690656e+01 2.0845236969435945e+01 3.9629017991709404e+01 0 0 0
496 166 1 0.0000000000000000e+00 1.3867739250540476e+01 2.5155357860378981e+01 3.7217305159476730e+01 0 0 0
656 219 6 0.0000000000000000e+00 2.0118348037667435e+01 1.0462124832987913e+01 3.2259989373564459e+01 0 0 0
520 174 1 0.0000000000000000e+00 2.1975611320846955e+01 7.4063274311659111e+00 3.8370367756654630e+01 0 0 0
6 2 1 0.0000000000000000e+00 1.2646023385683028e+01 8.8121552168351744e+00 4.1015595177920197e+01 0 0 0
532 178 1 0.0000000000000000e+00 1.4414947820786038e+01 1.9996844886403057e+01 3.5825772041921766e+01 0 0 0
365 122 2 0.0000000000000000e+00 2.4909817675072674e+01 1.4103989732788728e+01 4.0333745569459140e+01 0 0 0
390 130 1 0.0000000000000000e+00 2.3586230559029680e+01 5.1129421233772296e+00 4.2389273374580270e+01 0 0 0
612 204 5 0.0000000000000000e+00 3.4150662877088314e+00 2.5433537837250579e+01 3.5321764738191213e+01 0 0 0
625 209 5 0.0000000000000000e+00 7.8548792337276678e+00 1.8577542353118016e+01 4.1364117486830139e+01 0 0 0
626 209 6 0.0000000000000000e+00 8.4556213418051751e+00 2.1474746329245420e+01 3.9260016777468394e+01 0 0 0
660 220 5 0.0000000000000000e+00 1.8040598527680025e+01 1.2395601996113959e+01 3.8477380379175109e+01 0 0 0
659 220 6 0.0000000000000000e+00 1.3038689611878212e+01 1.4156348495407928e+01 3.8101680120627805e+01 0 0 0
658 220 5 0.0000000000000000e+00 7.6547927720322821e+00 1.3356761938860201e+01 3.7401506251299374e+01 0 0 0
508 170 1 0.0000000000000000e+00 2.5532673499800655e+01 7.5656519411585270e+00 3.3989591027994557e+01 0 0 0
345 115 1 0.0000000000000000e+00 2.4727172676666829e+00 4.1832028183844024e-02 3.3084674893286397e+01 0 1 0
735 245 5 0.0000000000000000e+00 2.6180938570904722e+01 1.3904040364008381e+01 3.4053482613483901e+01 0 0 0
780 280 7 0.0000000000000000e+00 1.2940662556410508e+01 2.3449425703034738e+01 4.2153731002050499e+01 0 0 0
521 174 2 0.0000000000000000e+00 1.6607557641157427e+01 4.5659453453812286e+00 4.2891583559090748e+01 0 0 0
655 219 5 0.0000000000000000e+00 1.6551293505381608e+01 1.2591621083819538e+01 3.2449373610272438e+01 0 0 0
177 59 1 0.0000000000000000e+00 7.6272505894528129e+00 2.2550557557216052e+01 3.2435328780588705e+01 0 0 0
4 2 1 0.0000000000000000e+00 9.2376761519575208e+00 1.4156226763856365e+00 4.5758097442410872e+01 0 0 0
5 2 2 0.0000000000000000e+00 1.0673356488513368e+01 5.8684852378698551e+00 4.5249912549071539e+01 0 0 0
187 63 1 0.0000000000000000e+00 1.1458721713979885e+00 2.2199932171605919e+01 4.6192281681423417e+01 0 0 0
517 173 1 0.0000000000000000e+00 4.6491869381103630e+00 6.4788955982801977e-01 5.3446431322034890e+01 0 0 0
602 201 6 0.0000000000000000e+00 1.3021993755145752e+01 5.1597671818032520e+00 5.2866936965982951e+01 0 0 0
25 9 1 0.0000000000000000e+00 1.9648081939033975e+01 5.0199845081550931e+00 5.0865994262164989e+01 0 0 0
429 143 1 0.0000000000000000e+00 1.6114393158154428e+01 2.5759471645871184e+01 4.8954931300262970e+01 0 0 0
246 82 1 0.0000000000000000e+00 1.4471437769178408e-01 9.2599968345924797e+00 5.1084221079145472e+01 0 0 0
752 252 7 0.0000000000000000e+00 2.1859681554119639e+01 1.8534626597120688e+01 5.0453672324188162e+01 0 0 0
400 134 1 0.0000000000000000e+00 5.3145594573092341e+00 2.3062826885403215e+01 5.2172947968395093e+01 0 0 -1
185 62 2 0.0000000000000000e+00 4.0334564371799724e+00 5.0298941152224286e+00 4.4170524232945816e+01 0 0 0
186 62 1 0.0000000000000000e+00 8.6710264222453439e+00 9.2707250485345405e+00 4.8693383682371682e+01 0 0 0
522 174 1 0.0000000000000000e+00 1.5524845651390828e+01 2.1334429748776129e+00 4.8942427451511300e+01 0 1 0
202 68 1 0.0000000000000000e+00 1.6722693439963045e+01 2.1313052408458624e+01 4.9898516207762555e+01 0 0 0
21 7 1 0.0000000000000000e+00 2.0424239930622615e+01 2.1233834579136250e+01 4.4914312752371210e+01 0 0 0
216 72 1 0.0000000000000000e+00 2.3305065336934849e+01 2.5784240836715821e+01 4.6493708867620072e+01 0 0 0
235 79 1 0.0000000000000000e+00 1.3832961627966679e+01 1.7322419654801539e+01 4.8617292533980653e+01 0 0 0
236 79 2 0.0000000000000000e+00 1.0226819221050452e+01 1.8642253325667934e+01 4.8263841473036109e+01 0 0 0
237 79 1 0.0000000000000000e+00 7.0348402906190159e+00 2.0230584162357989e+01 4.7169789226129311e+01 0 0 0
603 201 5 0.0000000000000000e+00 7.5053625654631215e+00 7.0650275844141390e+00 5.1642628283807582e+01 0 0 -1
247 83 1 0.0000000000000000e+00 4.1971501374289026e+00 1.2222694565605094e+01 5.1686955400725473e+01 0 0 0
248 83 2 0.0000000000000000e+00 4.5195503738410627e+00 1.5253886580102510e+01 4.8330692084056174e+01 0 0 0
249 83 1 0.0000000000000000e+00 1.0339169903382366e+01 1.2927499540986675e+01 4.4157517458395226e+01 0 0 0
751 251 7 0.0000000000000000e+00 9.8903083239935974e+00 2.5954710378595145e+01 4.8169505603422628e+01 0 0 0
402 134 1 0.0000000000000000e+00 1.0243069814633579e+01 1.3016722444264103e+01 5.1286659725180769e+01 0 0 -1
295 99 1 0.0000000000000000e+00 2.0964973319100590e+01 8.5205566866167022e+00 4.4445136516555642e+01 0 0 0
296 99 2 0.0000000000000000e+00 2.1941095384746728e+01 1.0903985295314444e+01 4.8179999229043766e+01 0 0 0
309 103 1 0.0000000000000000e+00 2.2853332752320608e+01 1.5858853013179379e+01 4.4684072919842997e+01 0 0 0
308 103 2 0.0000000000000000e+00 2.5562808075709487e+01 2.0989125674281969e+01 4.3664518424487149e+01 0 0 0
481 161 1 0.0000000000000000e+00 5.1297845375195550e-02 2.2577163167704448e+01 5.0195185435613197e+01 1 0 0
419 140 2 0.0000000000000000e+00 2.4765538831519031e+01 2.4287382057963210e+01 5.3459799673365218e+01 0 0 -1
682 228 5 0.0000000000000000e+00 1.6920872193462557e+01 9.9455249325072561e+00 5.0021224125716245e+01 0 0 0
297 99 1 0.0000000000000000e+00 2.3278334774291682e+01 9.9701703967991797e+00 5.1415156521185672e+01 0 0 -1
683 228 6 0.0000000000000000e+00 1.5481690344756494e+01 1.2331791231907795e+01 4.5871733236908447e+01 0 0 0
26 9 2 0.0000000000000000e+00 2.1313109256329618e+01 1.4393427369924356e+00 5.3652797361834097e+01 0 0 0
568 190 3 0.0000000000000000e+00 5.9041645374396952e+00 2.4691468998192640e+01 4.3046551934840608e+01 0 0 0
220 74 1 0.0000000000000000e+00 4.4421850691465341e+00 1.2077262589244508e+01 4.3945388562577612e+01 0 0 0
616 206 5 0.0000000000000000e+00 2.1794284624662135e+00 5.0890991232892020e+01 4.7968700900935115e+00 0 0 0
55 19 1 0.0000000000000000e+00 6.9398143140816926e-01 4.4784817991739764e+01 4.2142032406622505e+00 0 0 0
56 19 2 0.0000000000000000e+00 5.0279085895122897e+00 3.9289150147335739e+01 7.0275808217729470e+00 0 0 0
686 229 6 0.0000000000000000e+00 1.4713979926082125e+01 3.7119414341503294e+01 1.8871493070645817e+00 0 0 0
91 31 1 0.0000000000000000e+00 1.6331826986554983e+01 2.7671660337220658e+01 4.6619168983647317e+00 0 0 0
618 206 5 0.0000000000000000e+00 7.1795808939121413e+00 4.6874193738595977e+01 3.8445156631708048e+00 0 0 0
542 181 4 0.0000000000000000e+00 1.4002426883824894e+01 5.1346544811488819e+01 1.9858246275455878e+00 0 0 0
302 101 2 0.0000000000000000e+00 1.6455221096528277e+01 4.3649662188179228e+01 4.7870701191634364e+00 0 0 0
303 101 1 0.0000000000000000e+00 1.7992479116681892e+01 3.9887153858376635e+01 3.0167726673746826e+00 0 0 0
313 105 1 0.0000000000000000e+00 2.1477052747827170e+01 4.5953519445074811e+01 7.3028249293709298e+00 0 0 0
314 105 2 0.0000000000000000e+00 1.6908513581704820e+01 4.9218689334646520e+01 9.1229259350381646e+00 0 0 0
315 105 1 0.0000000000000000e+00 1.3893543327465471e+01 5.2132710986903163e+01 7.6366684550519972e+00 0 0 0
617 206 6 0.0000000000000000e+00 3.8181054048831147e+00 4.8754523656049557e+01 6.9907939441122391e+00 0 0 0
649 217 5 0.0000000000000000e+00 2.3762750040558760e+01 3.6165174845431224e+01 6.0807987824496585e+00 0 0 0
608 203 6 0.0000000000000000e+00 2.6061549728741451e+01 4.0422062589690817e+01 7.2982815905361837e+00 0 0 0
701 234 6 0.0000000000000000e+00 1.0427359259637210e+01 3.1528199193909934e+01 2.5795586654090372e+00 0 0 1
702 234 5 0.0000000000000000e+00 8.4082060096499855e+00 2.7032245968013161e+01 3.6203469279437379e+00 0 0 0
418 140 1 0.0000000000000000e+00 2.6084258202208691e+01 2.7891463998015688e+01 2.3964343073625209e+00 0 0 0
799 299 7 0.0000000000000000e+00 2.3068638717838134e+01 5.2133137100355441e+01 5.6336181329766584e+00 0 0 0
445 149 1 0.0000000000000000e+00 6.8376627173449949e+00 3.2707601239085669e+01 4.1407701814543065e+00 0 0 0
594 198 3 0.0000000000000000e+00 1.2833559704474608e+01 4.1912871921178912e+01 3.8226016710944251e+00 0 0 0
515 172 2 0.0000000000000000e+00 2.6379006249055010e+01 3.8848678281625958e+01 8.1792537805730059e-01 0 0 1
514 172 1 0.0000000000000000e+00 2.3957962362668955e+01 4.5050313675248852e+01 3.1215788381581140e+00 0 0 1
57 19 1 0.0000000000000000e+00 8.9445462406864262e+00 3.7520953433378118e+01 2.0035448486316940e+00 0 0 0
685 229 5 0.0000000000000000e+00 1.3686719226237892e+01 3.3962511387116358e+01 5.2396088906821916e+00 0 0 0
718 240 5 0.0000000000000000e+00 1.0440864739137758e+01 4.7255052244490912e+01 8.9093133938240801e+00 0 0 0
622 208 5 0.0000000000000000e+00 1.9563093180462825e+01 4.9057026563672537e+01 1.0617686420078942e+00 0 0 1
593 198 4 0.0000000000000000e+00 1.4801155796845336e+01 3.9434713673185293e+01 8.1177431897360321e+00 0 0 0
301 101 1 0.0000000000000000e+00 1.4380947482767514e+01 4.6929274133499398e+01 2.8983304623899451e+00 0 0 0
592 198 3 0.0000000000000000e+00 2.0269520848910954e+01 3.8470389735378703e+01 8.7535406973311503e+00 0 0 0
446 149 2 0.0000000000000000e+00 7.4926953564134358e-01 3.3292825722707363e+01 3.8388923351450837e+00 1 0 0
92 31 2 0.0000000000000000e+00 1.7812243522823930e+01 2.9237648476454190e+01 6.6497310440071289e-01 0 0 0
763 263 7 0.0000000000000000e+00 3.9331455863217051e+00 4.1718453329945731e+01 1.0682894023022949e+00 0 0 1
387 129 1 0.0000000000000000e+00 1.1465270189403403e+00 4.9927928737112808e+01 2.5472120383635105e-01 1 0 1
181 61 1 0.0000000000000000e+00 1.7486170250590620e+00 2.8670089769974496e+01 9.4014135245597128e+00 0 0 0
518 173 2 0.0000000000000000e+00 7.8886432922804586e+00 5.3343298221208364e+01 2.6585773688596865e+00 0 -1 0
182 61 2 0.0000000000000000e+00 2.8886400118678015e+00 3.2375594479787068e+01 1.0661093065656299e+01 0 0 0
482 161 2 0.0000000000000000e+00 6.2213751104423587e-01 2.7332330413528496e+01 7.8304940967036885e-02 0 0 1
774 274 7 0.0000000000000000e+00 8.3834299041469631e+00 2.8280889965639197e+01 1.2215206693207026e+01 0 0 0
136 46 1 0.0000000000000000e+00 7.3670632958614721e+00 4.9866594406556224e+01 1.3307816189706633e+01 0 0 0
137 46 2 0.0000000000000000e+00 2.4181224402568651e+00 4.6747756591486208e+01 1.2167086543391893e+01 0 0 0
650 217 6 0.0000000000000000e+00 2.5738608426260779e+01 3.4431029351517473e+01 1.1686610325431523e+01 0 0 0
183 61 1 0.0000000000000000e+00 8.4181379752884276e+00 3.5127020984924812e+01 1.0808028083046350e+01 0 0 0
207 69 1 0.0000000000000000e+00 2.1072050448781798e+01 4.6912533733843397e+01 1.1149795999302986e+01 0 0 0
588 196 3 0.0000000000000000e+00 1.3859082571237469e+01 3.3814613861154911e+01 1.1326421755148113e+01 0 0 0
319 107 1 0.0000000000000000e+00 1.4365256175202276e+01 4.0072641471881433e+01 1.7307788048215745e+01 0 0 0
320 107 2 0.0000000000000000e+00 2.0729362764142014e+01 4.3342047312025954e+01 1.6731051466478998e+01 0 0 0
651 217 5 0.0000000000000000e+00 2.6705603110072918e+01 3.0041387857105594e+01 1.3543685159008072e+01 0 0 0
583 195 3 0.0000000000000000e+00 5.0797137519581463e+00 2.9951792425748028e+01 1.7176747374765299e+01 0 0 0
317 106 2 0.0000000000000000e+00 2.6411683808034496e+01 4.0687679487055590e+01 1.9523831549076785e+01 0 0 0
369 123 1 0.0000000000000000e+00 4.2874082274158249e+00 3.5464802747861633e+01 1.3895349887881773e+01 0 0 0
381 127 1 0.0000000000000000e+00 1.7223438455341977e+00 3.7076920689975573e+01 1.9816651044100297e+01 0 0 0
794 294 7 0.0000000000000000e+00 4.6647236754372177e+00 4.5296984008323371e+01 1.9156730732313427e+01 0 0 0
325 109 1 0.0000000000000000e+00 3.2923332949190116e+00 5.0707091244009831e+01 1.6397253146069666e+01 0 -1 0
326 109 2 0.0000000000000000e+00 6.2668758521733290e+00 5.1830663890247052e+01 2.0189647374605585e+01 0 0 0
724 242 5 0.0000000000000000e+00 2.2671693925541671e+01 5.1640068633584022e+01 2.0616302882963065e+01 0 0 0
584 195 4 0.0000000000000000e+00 7.6487229288212317e+00 3.3782174730470892e+01 1.7165871250113572e+01 0 0 0
585 195 3 0.0000000000000000e+00 1.3029448500783166e+01 3.5650522790527063e+01 1.7330150767873970e+01 0 0 0
586 196 3 0.0000000000000000e+00 1.3757555720596132e+01 4.3303132773378870e+01 1.3007831964717123e+01 0 0 0
768 268 7 0.0000000000000000e+00 7.0923144934278270e-01 4.1636500532019916e+01 1.5698022843184035e+01 0 0 0
800 300 7 0.0000000000000000e+00 1.0947639738816246e+01 4.7629277555145663e+01 1.7678931288752459e+01 0 0 0
747 249 5 0.0000000000000000e+00 1.4590503779046845e+01 2.8281403812423846e+01 1.1774998994639613e+01 0 0 0
587 196 4 0.0000000000000000e+00 1.4017405888143214e+01 3.7415003616452616e+01 1.1787058002643386e+01 0 0 0
663 221 5 0.0000000000000000e+00 1.8987491626795897e+01 3.5231950877113164e+01 1.9103731787005582e+01 0 0 0
716 239 6 0.0000000000000000e+00 1.9600015747238153e+01 3.2049262898280553e+01 1.2496391777953207e+01 0 0 0
321 107 1 0.0000000000000000e+00 2.5746348463723002e+01 4.1218044367398868e+01 1.3918863544219146e+01 0 0 0
719 240 6 0.0000000000000000e+00 7.9240343019123243e+00 4.4620948313282199e+01 1.2397680110131702e+01 0 0 0
316 106 1 0.0000000000000000e+00 2.1624651222873286e+01 3.7673610672695823e+01 1.5610096719987581e+01 0 0 0
767 267 7 0.0000000000000000e+00 9.1592909768613584e+00 3.9354162193522683e+01 1.7184845562599900e+01 0 0 0
764 264 7 0.0000000000000000e+00 1.7904413969918657e+01 5.0795981134440744e+01 1.7969889769051420e+01 0 0 0
262 88 1 0.0000000000000000e+00 1.0353833998665390e+01 4.3372123535128580e+01 2.1410038433581789e+01 0 0 0
715 239 5 0.0000000000000000e+00 2.1457433421956651e+01 2.8533682311179895e+01 1.4588859805337721e+01 0 0 0