LAMMPS data file via convert_gromacs2lammps, ver 1.0, 2017-03-31  topol file: topol.top

6020 atoms
19 atom types
6521 bonds
23 bond types
9537 angles
72 angle types
9720 dihedrals
7 dihedral types
1220 impropers
3 improper types

0 53.2055 xlo xhi
0 52.5509 ylo yhi
0 51.9933 zlo zhi

Masses

1 12.011
2 12.011
3 14.027
4 13.019
5 13.019
6 13.019
7 13.019
8 14.027
9 14.027
10 14.027
11 15.035
12 15.035
13 15.035
14 15.999
15 15.9994
16 16.0227
17 17.0074
18 14.027
19 14.027

Pair Coeffs

1 0.05 3.8 # AMI_C6
2 0.05 3.8 # EPO_C5
3 0.066 3.5 # AMI_C7
4 0.11 3.75 # AMI_C4
5 0.11 3.75 # EPO_C4
6 0.118 3.8 # AMI_C1
7 0.118 3.8 # EPO_C2
8 0.14 3.85 # AMI_C3
9 0.14 3.85 # EPO_C1
10 0.14 3.85 # EPO_C3
11 0.16 3.91 # AMI_C2
12 0.16 3.91 # AMI_C8
13 0.16 3.91 # EPO_C6
14 0.17 3.0 # AMI_O1
15 0.17 3.0 # EPO_O2
16 0.17 3.3 # AMI_N1
17 0.17 3.0 # EPO_O1
18 0.175 3.905 # AMI_C5
19 0.175 3.905 # EPO_C7

Bond Coeffs

1 268.000000 1.410000 # (1, 0.141, 224262.4)
2 7.636353 1.460000 # (1, 0.146, 6390.1)
3 317.000000 1.520000 # (1, 0.152, 265265.6)
4 268.000000 1.530000 # (1, 0.153, 224262.4)
5 320.000000 1.380000 # (1, 0.138, 267776.0)
6 390.000000 1.400000 # (1, 0.14, 326352.0)
7 390.000000 1.560000 # (1, 0.156, 326352.0)
8 650.000000 1.460000 # (1, 0.146, 543920.0)
9 400.000000 1.550000 # (1, 0.155, 334720.0)
10 570.000000 1.400000 # (1, 0.14, 476976.0)
11 268.000000 1.510000 # (1, 0.151, 224262.4)
12 268.000000 1.550000 # (1, 0.155, 224262.4)
13 1150.000000 1.400000 # (1, 0.14, 962320.0)
14 390.000000 1.410000 # (1, 0.141, 326352.0)
15 1150.000000 1.510000 # (1, 0.151, 962320.0)
16 320.000000 1.350000 # (1, 0.135, 267776.0)
17 390.000000 1.570000 # (1, 0.157, 326352.0)
18 570.000000 1.390000 # (1, 0.139, 476976.0)
19 268.000000 1.540000 # (1, 0.154, 224262.4)
20 500.000000 1.460000 # (1, 0.146, 418400.0)
21 390.000000 1.520000 # (1, 0.152, 326352.0)
22 320.000000 1.400000 # (1, 0.14, 267776.0)
23 390.000000 1.510000 # (1, 0.151, 326352.0)

Angle Coeffs

1 70.000000 111.560000 # (1, 111.56, 585.76)
2 70.000000 109.382000 # (1, 109.382, 585.76)
3 70.000000 119.745000 # (1, 119.745, 585.76)
4 50.000000 109.943000 # (1, 109.943, 418.4)
5 70.000000 111.102000 # (1, 111.102, 585.76)
6 70.000000 107.164000 # (1, 107.164, 585.76)
7 70.000000 113.351000 # (1, 113.351, 585.76)
8 23.900574 121.649000 # (1, 121.649, 200.0)
9 70.000000 118.841000 # (1, 118.841, 585.76)
10 70.000000 112.094000 # (1, 112.094, 585.76)
11 80.000000 109.874000 # (1, 109.874, 669.44)
12 70.000000 109.393000 # (1, 109.393, 585.76)
13 23.900574 121.618000 # (1, 121.618, 200.0)
14 70.000000 121.410000 # (1, 121.41, 585.76)
15 23.900574 109.624000 # (1, 109.624, 200.0)
16 23.900574 109.267000 # (1, 109.267, 200.0)
17 80.000000 109.425000 # (1, 109.425, 669.44)
18 70.000000 110.623000 # (1, 110.623, 585.76)
19 23.900574 118.997000 # (1, 118.997, 200.0)
20 150.000000 120.243000 # (1, 120.243, 1255.2)
21 70.000000 119.385000 # (1, 119.385, 585.76)
22 70.000000 119.381000 # (1, 119.381, 585.76)
23 70.000000 120.565000 # (1, 120.565, 585.76)
24 70.000000 120.053000 # (1, 120.053, 585.76)
25 70.000000 120.068000 # (1, 120.068, 585.76)
26 70.000000 120.934000 # (1, 120.934, 585.76)
27 150.000000 109.366000 # (1, 109.366, 1255.2)
28 70.000000 108.139000 # (1, 108.139, 585.76)
29 70.000000 118.839000 # (1, 118.839, 585.76)
30 70.000000 109.090000 # (1, 109.09, 585.76)
31 60.000000 123.263000 # (1, 123.263, 502.08)
32 60.000000 123.278000 # (1, 123.278, 502.08)
33 150.000000 120.246000 # (1, 120.246, 1255.2)
34 63.000000 109.907000 # (1, 109.907, 527.184)
35 80.000000 109.859000 # (1, 109.859, 669.44)
36 70.000000 120.544000 # (1, 120.544, 585.76)
37 70.000000 108.160000 # (1, 108.16, 585.76)
38 70.000000 108.202000 # (1, 108.202, 585.76)
39 70.000000 119.751000 # (1, 119.751, 585.76)
40 23.900574 118.969000 # (1, 118.969, 200.0)
41 80.000000 109.668000 # (1, 109.668, 669.44)
42 23.900574 109.359000 # (1, 109.359, 200.0)
43 70.000000 105.871000 # (1, 105.871, 585.76)
44 50.000000 109.913000 # (1, 109.913, 418.4)
45 70.000000 107.245000 # (1, 107.245, 585.76)
46 70.000000 106.447000 # (1, 106.447, 585.76)
47 70.000000 111.075000 # (1, 111.075, 585.76)
48 70.000000 112.486000 # (1, 112.486, 585.76)
49 50.000000 110.039000 # (1, 110.039, 418.4)
50 70.000000 121.415000 # (1, 121.415, 585.76)
51 70.000000 106.682000 # (1, 106.682, 585.76)
52 70.000000 110.013000 # (1, 110.013, 585.76)
53 70.000000 109.211000 # (1, 109.211, 585.76)
54 60.000000 105.014000 # (1, 105.014, 502.08)
55 150.000000 109.561000 # (1, 109.561, 1255.2)
56 150.000000 113.177000 # (1, 113.177, 1255.2)
57 70.000000 109.374000 # (1, 109.374, 585.76)
58 70.000000 112.090000 # (1, 112.09, 585.76)
59 70.000000 111.859000 # (1, 111.859, 585.76)
60 70.000000 118.050000 # (1, 118.05, 585.76)
61 70.000000 120.901000 # (1, 120.901, 585.76)
62 70.000000 114.059000 # (1, 114.059, 585.76)
63 50.000000 110.000000 # (1, 110.0, 418.4)
64 60.000000 104.964000 # (1, 104.964, 502.08)
65 80.000000 109.753000 # (1, 109.753, 669.44)
66 70.000000 109.495000 # (1, 109.495, 585.76)
67 23.900574 109.347000 # (1, 109.347, 200.0)
68 23.900574 109.336000 # (1, 109.336, 200.0)
69 70.000000 109.508000 # (1, 109.508, 585.76)
70 23.900574 109.593000 # (1, 109.593, 200.0)
71 80.000000 109.819000 # (1, 109.819, 669.44)
72 70.000000 109.459000 # (1, 109.459, 585.76)

Dihedral Coeffs

1 6 0.000 -0.000 0.000 -0.000 0.000 -0.000 # (3, 0.0, 0.0, 0.0, 0.0, 0.0, 0.0)
2 6 3.000 -0.000 -3.000 -0.000 0.000 -0.000 # (3, 12.552, 0.0, -12.552, 0.0, 0.0, 0.0)
3 6 0.700 0.350 0.050 0.400 0.000 -0.000 # (3, 2.9288, -1.4644, 0.2092, -1.6736, 0.0, 0.0)
4 6 0.797 0.371 0.674 1.100 0.000 -0.000 # (3, 3.33465, -1.55226, 2.82001, -4.6024, 0.0, 0.0)
5 6 -0.275 -0.275 0.000 -0.000 0.000 -0.000 # (3, -1.1506, 1.1506, 0.0, 0.0, 0.0, 0.0)
6 6 0.410 -0.680 0.250 1.340 0.000 -0.000 # (3, 1.71544, 2.84512, 1.046, -5.60656, 0.0, 0.0)
7 6 0.687 -0.139 0.500 1.326 0.000 -0.000 # (3, 2.87441, 0.58158, 2.092, -5.54799, 0.0, 0.0)

Improper Coeffs

1 10.5 -1 2 # (1, 180.0, 43.932, 2.0)
2 15.0 -1 2 # (1, 180.0, 62.76, 2.0)
3 1.1 -1 2 # (1, 180.0, 4.6024, 2.0)

Atoms

1 1 17 -0.438563 26.67 19.6 36.22 0 0 0
2 1 9 0.207821 26.06 20.53 38.25 0 0 0
3 1 7 0.219871 27.24 20.26 37.32 0 0 0
4 1 10 0.277353 27.92 21.56 36.97 0 0 0
5 1 15 -0.53321 28.78 21.45 35.96 0 0 0
6 1 5 0.352494 29.95 22.01 35.75 0 0 0
7 1 5 -0.084366 31.07 21.17 35.23 0 0 0
8 1 5 0.129276 32.24 20.97 36.03 0 0 0
9 1 5 -0.029167 32.5 22.08 36.95 0 0 0
10 1 5 -0.016657 31.36 22.71 37.51 0 0 0
11 1 5 -0.054024 30.15 22.84 36.83 0 0 0
12 1 2 -0.087053 32.74 19.61 36.41 0 0 0
13 1 13 0.014437 32.2 19.25 37.81 0 0 0
14 1 13 0.012516 32.35 18.52 35.37 0 0 0
15 1 5 0.129562 34.24 19.5 36.47 0 0 0
16 1 5 -0.030866 34.77 19.55 37.79 0 0 0
17 1 5 -0.017661 36.17 19.79 37.82 0 0 0
18 1 5 -0.05434 36.87 19.41 36.68 0 0 0
19 1 5 0.352747 36.27 18.78 35.56 0 0 0
20 1 5 -0.083881 34.89 18.86 35.43 0 0 0
21 1 15 -0.532941 36.84 17.91 34.77 0 0 0
22 1 10 0.277028 36.24 17.05 33.85 0 0 0
23 1 7 0.220209 37.26 16.58 32.94 0 0 0
24 1 9 0.207945 36.67 16.06 31.72 0 0 0
25 1 17 -0.438528 38.13 17.67 32.67 0 0 0
26 2 17 -0.438563 20.34 3.4 8.01 0 0 0
27 2 9 0.207821 22.54 3.16 8.64 0 0 0
28 2 7 0.219871 21.62 3.95 7.72 0 0 0
29 2 10 0.277353 21.6 5.46 7.94 0 0 0
30 2 15 -0.53321 22.87 5.96 7.8 0 0 0
31 2 5 0.352494 23.26 7.01 7.06 0 0 0
32 2 5 -0.084366 24.63 7.31 7.33 0 0 0
33 2 5 0.129276 25.12 8.63 7.27 0 0 0
34 2 5 -0.029167 24.2 9.66 6.96 0 0 0
35 2 5 -0.016657 22.88 9.36 6.64 0 0 0
36 2 5 -0.054024 22.49 8.03 6.54 0 0 0
37 2 2 -0.087053 26.59 8.86 7.2 0 0 0
38 2 13 0.014437 27.18 7.47 7.25 0 0 0
39 2 13 0.012516 26.89 9.54 5.87 0 0 0
40 2 5 0.129562 27.07 9.74 8.42 0 0 0
41 2 5 -0.030866 28.13 10.61 8.24 0 0 0
42 2 5 -0.017661 28.88 11.1 9.32 0 0 0
43 2 5 -0.05434 28.69 10.38 10.52 0 0 0
44 2 5 0.352747 27.45 9.84 10.79 0 0 0
45 2 5 -0.083881 26.6 9.55 9.75 0 0 0
46 2 15 -0.532941 27.26 9.3 12.06 0 0 0
47 2 10 0.277028 26.23 8.43 12.48 0 0 0
48 2 7 0.220209 26.34 8.28 14.01 0 0 0
49 2 9 0.207945 25.85 6.91 14.37 0 0 0
50 2 17 -0.438528 25.6 9.31 14.55 0 0 0
51 3 17 -0.438563 34.15 43.77 43.8 0 0 0
52 3 9 0.207821 34.3 43.01 46.17 0 0 0
53 3 7 0.219871 34.89 43.14 44.78 0 0 0
54 3 10 0.277353 36.25 43.71 44.79 0 0 0
55 3 15 -0.53321 36.46 44.38 46.01 0 0 0
56 3 5 0.352494 37.7 44.77 46.34 0 0 0
57 3 5 -0.084366 38.68 44.75 45.29 0 0 0
58 3 5 0.129276 39.92 45.27 45.55 0 0 0
59 3 5 -0.029167 39.93 46.28 46.59 0 0 0
60 3 5 -0.016657 39.11 46.08 47.68 0 0 0
61 3 5 -0.054024 37.89 45.44 47.59 0 0 0
62 3 2 -0.087053 40.87 45.27 44.42 0 0 0
63 3 13 0.014437 40.56 44.08 43.43 0 0 0
64 3 13 0.012516 40.84 46.66 43.65 0 0 0
65 3 5 0.129562 42.27 45.07 44.97 0 0 0
66 3 5 -0.030866 42.64 43.99 45.87 0 0 0
67 3 5 -0.017661 43.87 44.12 46.56 0 0 0
68 3 5 -0.05434 44.5 45.34 46.58 0 0 0
69 3 5 0.352747 44.2 46.32 45.64 0 0 0
70 3 5 -0.083881 43.25 46.02 44.66 0 0 0
71 3 15 -0.532941 44.57 47.6 45.77 0 0 0
72 3 10 0.277028 45.47 48.04 46.67 0 0 0
73 3 7 0.220209 44.82 49.02 47.69 0 0 0
74 3 9 0.207945 43.34 49.03 47.55 0 0 0
75 3 17 -0.438528 45.4 50.24 47.63 0 0 0
76 4 17 -0.438563 39.22 -9.38 -23.94 0 0 0
77 4 9 0.207821 40.15 -8.89 -21.92 0 0 0
78 4 7 0.219871 40.47 -8.91 -23.39 0 0 0
79 4 10 0.277353 41.66 -9.82 -23.65 0 0 0
80 4 15 -0.53321 41.94 -9.87 -24.99 0 0 0
81 4 5 0.352494 43.05 -10.23 -25.58 0 0 0
82 4 5 -0.084366 42.75 -10.74 -26.83 0 0 0
83 4 5 0.129276 43.21 -11.99 -27.21 0 0 0
84 4 5 -0.029167 44.19 -12.58 -26.41 0 0 0
85 4 5 -0.016657 44.35 -12.28 -25.04 0 0 0
86 4 5 -0.054024 44.0 -10.96 -24.75 0 0 0
87 4 2 -0.087053 42.65 -12.62 -28.51 0 0 0
88 4 13 0.014437 42.21 -14.01 -28.09 0 0 0
89 4 13 0.012516 41.42 -11.91 -29.1 0 0 0
90 4 5 0.129562 43.81 -12.65 -29.53 0 0 0
91 4 5 -0.030866 43.9 -13.83 -30.34 0 0 0
92 4 5 -0.017661 44.96 -13.98 -31.26 0 0 0
93 4 5 -0.05434 45.8 -12.88 -31.3 0 0 0
94 4 5 0.352747 45.78 -11.89 -30.32 0 0 0
95 4 5 -0.083881 44.58 -11.54 -29.84 0 0 0
96 4 15 -0.532941 46.98 -11.82 -29.62 0 0 0
97 4 10 0.277028 47.08 -11.36 -28.33 0 0 0
98 4 7 0.220209 48.07 -12.2 -27.55 0 0 0
99 4 9 0.207945 48.48 -11.49 -26.29 0 0 0
100 4 17 -0.438528 47.53 -13.46 -27.25 0 0 0
101 5 17 -0.438563 38.62 8.27 4.1 0 0 0
102 5 9 0.207821 38.24 10.56 4.1 0 0 0
103 5 7 0.219871 38.65 9.37 3.22 0 0 0
104 5 10 0.277353 37.6 9.26 2.11 0 0 0
105 5 15 -0.53321 37.18 10.5 1.68 0 0 0
106 5 5 0.352494 37.32 10.9 0.41 0 0 0
107 5 5 -0.084366 38.18 9.85 -0.11 0 0 0
108 5 5 0.129276 38.58 9.64 -1.56 0 0 0
109 5 5 -0.029167 37.18 9.88 -2.06 0 0 0
110 5 5 -0.016657 36.44 11.06 -1.76 0 0 0
111 5 5 -0.054024 36.44 11.52 -0.43 0 0 0
112 5 2 -0.087053 41.23 9.02 -3.15 0 0 0
113 5 13 0.014437 42.81 8.96 -2.73 0 0 0
114 5 13 0.012516 41.83 7.71 -3.96 0 0 0
115 5 5 0.129562 41.87 9.61 -4.62 0 0 0
116 5 5 -0.030866 43.07 10.42 -4.65 0 0 0
117 5 5 -0.017661 43.23 11.18 -5.8 0 0 0
118 5 5 -0.05434 42.55 10.75 -6.93 0 0 0
119 5 5 0.352747 41.9 9.54 -7.01 0 0 0
120 5 5 -0.083881 41.75 8.84 -5.78 0 0 0
121 5 15 -0.532941 40.79 9.51 -7.69 0 0 0
122 5 10 0.277028 39.9 10.48 -7.81 0 0 0
123 5 7 0.220209 38.51 9.89 -7.89 0 0 0
124 5 9 0.207945 38.47 8.77 -6.83 0 0 0
125 5 17 -0.438528 38.15 9.6 -9.15 0 0 0
126 6 17 -0.438563 26.08 40.2 64.73 0 0 0
127 6 9 0.207821 28.15 41.35 64.66 0 0 0
128 6 7 0.219871 27.46 40.06 64.85 0 0 0
129 6 10 0.277353 27.89 38.99 63.89 0 0 0
130 6 15 -0.53321 27.76 37.71 64.39 0 0 0
131 6 5 0.352494 27.03 36.84 63.83 0 0 0
132 6 5 -0.084366 26.82 35.46 64.32 0 0 0
133 6 5 0.129276 25.56 34.82 64.1 0 0 0
134 6 5 -0.029167 24.64 35.54 63.38 0 0 0
135 6 5 -0.016657 24.92 36.7 62.65 0 0 0
136 6 5 -0.054024 26.24 37.19 62.68 0 0 0
137 6 2 -0.087053 25.73 33.28 63.84 0 0 0
138 6 13 0.014437 27.23 33.04 63.73 0 0 0
139 6 13 0.012516 25.32 32.53 65.11 0 0 0
140 6 5 0.129562 25.04 32.87 62.63 0 0 0
141 6 5 -0.030866 25.6 32.97 61.33 0 0 0
142 6 5 -0.017661 24.99 32.22 60.33 0 0 0
143 6 5 -0.05434 23.97 31.27 60.62 0 0 0
144 6 5 0.352747 23.24 31.38 61.82 0 0 0
145 6 5 -0.083881 23.84 32.19 62.79 0 0 0
146 6 15 -0.532941 22.79 30.19 62.32 0 0 0
147 6 10 0.277028 23.05 28.96 61.72 0 0 0
148 6 7 0.220209 23.65 27.98 62.68 0 0 0
149 6 9 0.207945 24.64 27.16 61.93 0 0 0
150 6 17 -0.438528 22.68 27.03 63.1 0 0 0
151 7 17 -0.438563 29.33 0.93 24.06 0 0 0
152 7 9 0.207821 27.12 1.01 24.66 0 0 0
153 7 7 0.219871 28.17 0.26 23.84 0 0 0
154 7 10 0.277353 27.87 0.32 22.39 0 0 0
155 7 15 -0.53321 26.6 -0.13 22.15 0 0 0
156 7 5 0.352494 26.15 -0.33 20.9 0 0 0
157 7 5 -0.084366 27.07 -0.05 19.96 0 0 0
158 7 5 0.129276 27.09 -0.86 18.8 0 0 0
159 7 5 -0.029167 25.95 -1.53 18.51 0 0 0
160 7 5 -0.016657 25.03 -1.87 19.49 0 0 0
161 7 5 -0.054024 24.97 -1.09 20.63 0 0 0
162 7 2 -0.087053 28.01 -0.39 17.62 0 0 0
163 7 13 0.014437 27.05 0.33 16.69 0 0 0
164 7 13 0.012516 29.15 0.55 17.9 0 0 0
165 7 5 0.129562 28.61 -1.66 16.97 0 0 0
166 7 5 -0.030866 29.5 -2.49 17.78 0 0 0
167 7 5 -0.017661 29.87 -3.77 17.36 0 0 0
168 7 5 -0.05434 29.13 -4.35 16.36 0 0 0
169 7 5 0.352747 28.19 -3.63 15.54 0 0 0
170 7 5 -0.083881 28.0 -2.24 15.73 0 0 0
171 7 15 -0.532941 28.37 -3.88 14.26 0 0 0
172 7 10 0.277028 29.27 -4.74 13.63 0 0 0
173 7 7 0.220209 28.74 -5.15 12.24 0 0 0
174 7 9 0.207945 29.4 -4.25 11.14 0 0 0
175 7 17 -0.438528 27.37 -5.14 12.17 0 0 0
176 8 17 -0.438563 -0.86 59.48 38.13 0 0 0
177 8 9 0.207821 -1.77 60.87 39.77 0 0 0
178 8 7 0.219871 -0.51 60.41 39.17 0 0 0
179 8 10 0.277353 0.23 61.55 38.54 0 0 0
180 8 15 -0.53321 0.46 62.47 39.57 0 0 0
181 8 5 0.352494 1.59 63.21 39.62 0 0 0
182 8 5 -0.084366 2.64 62.73 38.82 0 0 0
183 8 5 0.129276 3.92 63.02 39.14 0 0 0
184 8 5 -0.029167 4.23 63.77 40.23 0 0 0
185 8 5 -0.016657 3.23 64.49 40.9 0 0 0
186 8 5 -0.054024 1.89 64.13 40.67 0 0 0
187 8 2 -0.087053 5.02 62.25 38.54 0 0 0
188 8 13 0.014437 5.12 60.93 39.41 0 0 0
189 8 13 0.012516 4.67 61.68 37.21 0 0 0
190 8 5 0.129562 6.35 63.01 38.21 0 0 0
191 8 5 -0.030866 6.51 63.43 36.92 0 0 0
192 8 5 -0.017661 7.78 63.37 36.29 0 0 0
193 8 5 -0.05434 8.9 63.16 37.13 0 0 0
194 8 5 0.352747 8.79 63.07 38.54 0 0 0
195 8 5 -0.083881 7.52 63.03 39.05 0 0 0
196 8 15 -0.532941 9.74 62.4 39.23 0 0 0
197 8 10 0.277028 10.83 61.78 38.65 0 0 0
198 8 7 0.220209 11.75 61.04 39.67 0 0 0
199 8 9 0.207945 13.14 60.7 39.19 0 0 0
200 8 17 -0.438528 11.43 61.32 40.99 0 0 0
201 9 17 -0.438563 58.28 6.2 8.6 0 0 0
202 9 9 0.207821 57.81 8.02 10.21 0 0 0
203 9 7 0.219871 58.08 7.57 8.8 0 0 0
204 9 10 0.277353 59.14 8.43 8.09 0 0 0
205 9 15 -0.53321 58.45 9.28 7.27 0 0 0
206 9 5 0.352494 59.13 10.04 6.34 0 0 0
207 9 5 -0.084366 58.55 11.05 5.57 0 0 0
208 9 5 0.129276 58.92 12.42 5.71 0 0 0
209 9 5 -0.029167 59.66 12.93 6.79 0 0 0
210 9 5 -0.016657 60.44 11.89 7.38 0 0 0
211 9 5 -0.054024 60.33 10.52 6.98 0 0 0
212 9 2 -0.087053 58.65 13.3 4.53 0 0 0
213 9 13 0.014437 57.54 12.62 3.78 0 0 0
214 9 13 0.012516 58.15 14.66 4.97 0 0 0
215 9 5 0.129562 59.85 13.4 3.61 0 0 0
216 9 5 -0.030866 60.41 12.27 3.06 0 0 0
217 9 5 -0.017661 61.55 12.36 2.26 0 0 0
218 9 5 -0.05434 61.59 13.49 1.41 0 0 0
219 9 5 0.352747 60.71 14.55 1.65 0 0 0
220 9 5 -0.083881 60.3 14.58 2.95 0 0 0
221 9 15 -0.532941 59.84 14.8 0.72 0 0 0
222 9 10 0.277028 60.09 14.83 -0.66 0 0 0
223 9 7 0.220209 58.77 14.94 -1.44 0 0 0
224 9 9 0.207945 59.14 15.04 -2.85 0 0 0
225 9 17 -0.438528 58.02 13.85 -1.1 0 0 0
226 10 17 -0.438563 42.75 25.34 8.7 0 0 0
227 10 9 0.207821 44.04 27.31 7.73 0 0 0
228 10 7 0.219871 43.1 26.73 8.76 0 0 0
229 10 10 0.277353 43.31 27.2 10.18 0 0 0
230 10 15 -0.53321 42.29 26.85 10.93 0 0 0
231 10 5 0.352494 41.56 27.86 11.49 0 0 0
232 10 5 -0.084366 42.06 29.12 11.3 0 0 0
233 10 5 0.129276 41.67 30.22 12.08 0 0 0
234 10 5 -0.029167 40.62 30.0 13.04 0 0 0
235 10 5 -0.016657 40.04 28.75 13.14 0 0 0
236 10 5 -0.054024 40.35 27.79 12.16 0 0 0
237 10 2 -0.087053 41.82 31.63 11.46 0 0 0
238 10 13 0.014437 40.79 31.75 10.29 0 0 0
239 10 13 0.012516 41.35 32.79 12.44 0 0 0
240 10 5 0.129562 43.34 31.8 11.17 0 0 0
241 10 5 -0.030866 43.68 31.8 9.86 0 0 0
242 10 5 -0.017661 44.95 31.96 9.42 0 0 0
243 10 5 -0.05434 45.83 32.66 10.3 0 0 0
244 10 5 0.352747 45.45 32.88 11.64 0 0 0
245 10 5 -0.083881 44.21 32.35 12.1 0 0 0
246 10 15 -0.532941 46.38 32.59 12.61 0 0 0
247 10 10 0.277028 47.73 32.67 12.34 0 0 0
248 10 7 0.220209 48.63 32.97 13.51 0 0 0
249 10 9 0.207945 50.1 32.99 13.06 0 0 0
250 10 17 -0.438528 48.53 32.35 14.79 0 0 0
251 11 17 -0.438563 31.63 40.8 47.97 0 0 0
252 11 9 0.207821 32.44 41.19 45.81 0 0 0
253 11 7 0.219871 31.84 40.17 46.75 0 0 0
254 11 10 0.277353 30.53 39.6 46.23 0 0 0
255 11 15 -0.53321 30.76 38.21 46.26 0 0 0
256 11 5 0.352494 30.12 37.15 45.69 0 0 0
257 11 5 -0.084366 30.87 35.99 45.36 0 0 0
258 11 5 0.129276 30.23 34.97 44.67 0 0 0
259 11 5 -0.029167 28.84 34.72 44.92 0 0 0
260 11 5 -0.016657 28.08 35.83 45.3 0 0 0
261 11 5 -0.054024 28.73 36.99 45.82 0 0 0
262 11 2 -0.087053 31.17 33.89 44.14 0 0 0
263 11 13 0.014437 31.97 34.44 42.85 0 0 0
264 11 13 0.012516 32.31 33.65 45.12 0 0 0
265 11 5 0.129562 30.42 32.63 43.72 0 0 0
266 11 5 -0.030866 29.95 32.6 42.4 0 0 0
267 11 5 -0.017661 30.12 31.52 41.55 0 0 0
268 11 5 -0.05434 30.79 30.45 42.14 0 0 0
269 11 5 0.352747 30.78 30.24 43.55 0 0 0
270 11 5 -0.083881 30.68 31.38 44.38 0 0 0
271 11 15 -0.532941 31.38 29.2 44.2 0 0 0
272 11 10 0.277028 31.63 29.22 45.54 0 0 0
273 11 7 0.220209 32.29 27.98 46.04 0 0 0
274 11 9 0.207945 31.27 26.91 46.11 0 0 0
275 11 17 -0.438528 33.2 27.58 45.12 0 0 0
276 12 17 -0.438563 24.97 5.56 10.2 0 0 0
277 12 9 0.207821 24.98 3.19 9.56 0 0 0
278 12 7 0.219871 25.79 4.52 9.76 0 0 0
279 12 10 0.277353 26.74 4.1 10.86 0 0 0
280 12 15 -0.53321 27.82 3.28 10.39 0 0 0
281 12 5 0.352494 28.68 3.65 9.43 0 0 0
282 12 5 -0.084366 29.4 2.64 8.71 0 0 0
283 12 5 0.129276 30.35 3.03 7.81 0 0 0
284 12 5 -0.029167 31.0 4.27 7.89 0 0 0
285 12 5 -0.016657 30.37 5.28 8.62 0 0 0
286 12 5 -0.054024 29.16 4.96 9.25 0 0 0
287 12 2 -0.087053 31.0 1.97 7.0 0 0 0
288 12 13 0.014437 32.1 2.54 6.1 0 0 0
289 12 13 0.012516 31.69 0.88 7.86 0 0 0
290 12 5 0.129562 29.88 1.21 6.29 0 0 0
291 12 5 -0.030866 29.37 1.74 5.09 0 0 0
292 12 5 -0.017661 29.43 0.89 3.97 0 0 0
293 12 5 -0.05434 29.44 -0.51 4.2 0 0 0
294 12 5 0.352747 29.48 -1.08 5.56 0 0 0
295 12 5 -0.083881 29.53 -0.16 6.6 0 0 0
296 12 15 -0.532941 28.92 -2.28 5.85 0 0 0
297 12 10 0.277028 28.15 -2.49 7.01 0 0 0
298 12 7 0.220209 28.37 -3.93 7.38 0 0 0
299 12 9 0.207945 28.06 -4.13 8.78 0 0 0
300 12 17 -0.438528 27.57 -4.76 6.59 0 0 0
301 13 17 -0.438563 32.23 43.22 67.54 0 0 0
302 13 9 0.207821 31.46 42.61 69.77 0 0 0
303 13 7 0.219871 32.37 42.33 68.6 0 0 0
304 13 10 0.277353 33.83 42.33 69.0 0 0 0
305 13 15 -0.53321 33.97 41.52 70.1 0 0 0
306 13 5 0.352494 34.85 40.51 70.12 0 0 0
307 13 5 -0.084366 35.27 40.1 68.9 0 0 0
308 13 5 0.129276 35.65 38.76 68.58 0 0 0
309 13 5 -0.029167 35.96 37.93 69.65 0 0 0
310 13 5 -0.016657 35.25 38.27 70.81 0 0 0
311 13 5 -0.054024 34.99 39.6 71.17 0 0 0
312 13 2 -0.087053 35.67 38.24 67.11 0 0 0
313 13 13 0.014437 37.15 37.98 67.02 0 0 0
314 13 13 0.012516 35.04 36.84 66.95 0 0 0
315 13 5 0.129562 35.11 39.28 66.09 0 0 0
316 13 5 -0.030866 36.02 40.12 65.47 0 0 0
317 13 5 -0.017661 35.95 40.44 64.12 0 0 0
318 13 5 -0.05434 34.82 40.05 63.44 0 0 0
319 13 5 0.352747 33.7 39.6 64.17 0 0 0
320 13 5 -0.083881 33.85 39.15 65.49 0 0 0
321 13 15 -0.532941 32.4 39.7 63.73 0 0 0
322 13 10 0.277028 32.08 40.03 62.4 0 0 0
323 13 7 0.220209 31.73 38.7 61.7 0 0 0
324 13 9 0.207945 32.19 38.93 60.27 0 0 0
325 13 17 -0.438528 30.39 38.34 61.75 0 0 0
326 14 17 -0.438563 50.0 15.34 37.76 0 0 0
327 14 9 0.207821 47.68 16.04 37.69 0 0 0
328 14 7 0.219871 49.07 16.17 38.34 0 0 0
329 14 10 0.277353 49.59 17.58 38.28 0 0 0
330 14 15 -0.53321 48.77 18.52 38.88 0 0 0
331 14 5 0.352494 49.28 19.64 39.43 0 0 0
332 14 5 -0.084366 50.64 20.06 39.2 0 0 0
333 14 5 0.129276 51.4 20.74 40.17 0 0 0
334 14 5 -0.029167 50.72 20.95 41.34 0 0 0
335 14 5 -0.016657 49.31 20.88 41.42 0 0 0
336 14 5 -0.054024 48.71 19.9 40.64 0 0 0
337 14 2 -0.087053 52.85 20.34 40.27 0 0 0
338 14 13 0.014437 53.28 20.05 41.74 0 0 0
339 14 13 0.012516 53.04 19.02 39.43 0 0 0
340 14 5 0.129562 53.69 21.4 39.55 0 0 0
341 14 5 -0.030866 54.18 21.26 38.2 0 0 0
342 14 5 -0.017661 54.17 22.35 37.32 0 0 0
343 14 5 -0.05434 53.88 23.56 37.92 0 0 0
344 14 5 0.352747 54.15 23.71 39.26 0 0 0
345 14 5 -0.083881 53.95 22.65 40.12 0 0 0
346 14 15 -0.532941 54.83 24.76 39.7 0 0 0
347 14 10 0.277028 55.15 24.77 41.07 0 0 0
348 14 7 0.220209 55.86 26.17 41.15 0 0 0
349 14 9 0.207945 55.16 26.99 42.11 0 0 0
350 14 17 -0.438528 57.2 26.04 41.43 0 0 0
351 15 17 -0.438563 35.21 -11.37 23.45 0 0 0
352 15 9 0.207821 35.01 -9.21 23.97 0 0 0
353 15 7 0.219871 35.98 -10.23 23.5 0 0 0
354 15 10 0.277353 36.33 -9.71 22.15 0 0 0
355 15 15 -0.53321 37.53 -10.11 21.66 0 0 0
356 15 5 0.352494 37.94 -9.87 20.39 0 0 0
357 15 5 -0.084366 39.19 -10.29 20.05 0 0 0
358 15 5 0.129276 39.74 -9.89 18.72 0 0 0
359 15 5 -0.029167 38.81 -9.48 17.74 0 0 0
360 15 5 -0.016657 37.46 -9.47 18.1 0 0 0
361 15 5 -0.054024 37.01 -9.46 19.43 0 0 0
362 15 2 -0.087053 41.11 -10.33 18.29 0 0 0
363 15 13 0.014437 41.49 -11.61 19.04 0 0 0
364 15 13 0.012516 41.08 -10.65 16.8 0 0 0
365 15 5 0.129562 42.17 -9.26 18.53 0 0 0
366 15 5 -0.030866 43.52 -9.53 18.73 0 0 0
367 15 5 -0.017661 44.47 -8.6 19.13 0 0 0
368 15 5 -0.05434 44.12 -7.26 19.0 0 0 0
369 15 5 0.352747 42.77 -6.9 18.79 0 0 0
370 15 5 -0.083881 41.78 -7.92 18.94 0 0 0
371 15 15 -0.532941 42.48 -6.0 17.84 0 0 0
372 15 10 0.277028 43.32 -5.18 17.14 0 0 0
373 15 7 0.220209 42.5 -3.98 16.55 0 0 0
374 15 9 0.207945 42.96 -2.59 17.07 0 0 0
375 15 17 -0.438528 41.14 -4.05 16.94 0 0 0
376 16 17 -0.438563 39.05 -19.54 7.7 0 0 0
377 16 9 0.207821 37.36 -18.07 6.85 0 0 0
378 16 7 0.219871 38.56 -18.95 6.55 0 0 0
379 16 10 0.277353 38.13 -20.1 5.64 0 0 0
380 16 15 -0.53321 38.97 -20.29 4.57 0 0 0
381 16 5 0.352494 38.65 -21.11 3.54 0 0 0
382 16 5 -0.084366 39.3 -20.93 2.33 0 0 0
383 16 5 0.129276 39.05 -21.77 1.24 0 0 0
384 16 5 -0.029167 38.31 -23.0 1.45 0 0 0
385 16 5 -0.016657 37.62 -23.13 2.66 0 0 0
386 16 5 -0.054024 37.78 -22.18 3.68 0 0 0
387 16 2 -0.087053 39.16 -21.22 -0.14 0 0 0
388 16 13 0.014437 39.08 -22.34 -1.14 0 0 0
389 16 13 0.012516 38.13 -20.17 -0.56 0 0 0
390 16 5 0.129562 40.57 -20.54 -0.26 0 0 0
391 16 5 -0.030866 40.63 -19.19 -0.6 0 0 0
392 16 5 -0.017661 41.82 -18.52 -0.7 0 0 0
393 16 5 -0.05434 43.01 -19.27 -0.49 0 0 0
394 16 5 0.352747 42.93 -20.67 -0.61 0 0 0
395 16 5 -0.083881 41.75 -21.26 -0.22 0 0 0
396 16 15 -0.532941 44.02 -21.48 -0.41 0 0 0
397 16 10 0.277028 45.27 -21.02 -0.43 0 0 0
398 16 7 0.220209 46.29 -22.13 -0.43 0 0 0
399 16 9 0.207945 47.74 -21.55 -0.39 0 0 0
400 16 17 -0.438528 46.02 -23.04 0.61 0 0 0
401 17 17 -0.438563 4.26 59.47 86.79 0 0 0
402 17 9 0.207821 4.39 60.31 84.48 0 0 0
403 17 7 0.219871 5.16 59.82 85.74 0 0 0
404 17 10 0.277353 6.06 58.72 85.34 0 0 0
405 17 15 -0.53321 6.48 58.79 84.1 0 0 0
406 17 5 0.352494 7.15 57.75 83.5 0 0 0
407 17 5 -0.084366 7.73 58.15 82.32 0 0 0
408 17 5 0.129276 8.48 57.23 81.56 0 0 0
409 17 5 -0.029167 9.51 56.64 82.29 0 0 0
410 17 5 -0.016657 9.14 56.29 83.62 0 0 0
411 17 5 -0.054024 7.93 56.75 84.18 0 0 0
412 17 2 -0.087053 8.29 56.96 80.07 0 0 0
413 17 13 0.014437 8.05 55.52 79.79 0 0 0
414 17 13 0.012516 7.07 57.72 79.5 0 0 0
415 17 5 0.129562 9.57 57.45 79.36 0 0 0
416 17 5 -0.030866 9.76 58.87 79.1 0 0 0
417 17 5 -0.017661 11.05 59.32 78.76 0 0 0
418 17 5 -0.05434 11.88 58.32 78.22 0 0 0
419 17 5 0.352747 11.6 56.9 78.33 0 0 0
420 17 5 -0.083881 10.28 56.5 78.7 0 0 0
421 17 15 -0.532941 12.4 56.06 77.66 0 0 0
422 17 10 0.277028 13.23 56.67 76.79 0 0 0
423 17 7 0.220209 14.36 55.84 76.13 0 0 0
424 17 9 0.207945 15.43 56.7 75.52 0 0 0
425 17 17 -0.438528 13.9 54.94 75.16 0 0 0
426 18 17 -0.438563 27.9 20.03 3.51 0 0 0
427 18 9 0.207821 29.31 19.12 5.27 0 0 0
428 18 7 0.219871 28.77 18.97 3.84 0 0 0
429 18 10 0.277353 28.15 17.63 3.53 0 0 0
430 18 15 -0.53321 29.06 16.64 3.7 0 0 0
431 18 5 0.352494 28.81 15.35 3.98 0 0 0
432 18 5 -0.084366 27.5 14.92 3.82 0 0 0
433 18 5 0.129276 27.27 13.57 3.74 0 0 0
434 18 5 -0.029167 28.2 12.72 4.35 0 0 0
435 18 5 -0.016657 29.45 13.13 4.7 0 0 0
436 18 5 -0.054024 29.84 14.45 4.38 0 0 0
437 18 2 -0.087053 25.91 13.03 3.34 0 0 0
438 18 13 0.014437 25.0 12.86 4.61 0 0 0
439 18 13 0.012516 25.18 14.06 2.45 0 0 0
440 18 5 0.129562 26.05 11.73 2.54 0 0 0
441 18 5 -0.030866 26.58 11.74 1.25 0 0 0
442 18 5 -0.017661 26.29 10.75 0.3 0 0 0
443 18 5 -0.05434 25.72 9.54 0.77 0 0 0
444 18 5 0.352747 25.21 9.49 2.12 0 0 0
445 18 5 -0.083881 25.26 10.65 2.95 0 0 0
446 18 15 -0.532941 24.92 8.22 2.72 0 0 0
447 18 10 0.277028 24.69 7.08 2.06 0 0 0
448 18 7 0.220209 23.94 6.07 2.97 0 0 0
449 18 9 0.207945 23.37 4.94 2.09 0 0 0
450 18 17 -0.438528 22.71 6.6 3.37 0 0 0
451 19 17 -0.438563 22.81 -7.17 10.2 0 0 0
452 19 9 0.207821 22.05 -8.75 8.61 0 0 0
453 19 7 0.219871 21.67 -7.58 9.51 0 0 0
454 19 10 0.277353 21.01 -6.41 8.71 0 0 0
455 19 15 -0.53321 19.69 -6.76 8.46 0 0 0
456 19 5 0.352494 18.83 -6.04 7.7 0 0 0
457 19 5 -0.084366 19.28 -4.89 7.04 0 0 0
458 19 5 0.129276 18.29 -3.99 6.4 0 0 0
459 19 5 -0.029167 16.95 -4.37 6.65 0 0 0
460 19 5 -0.016657 16.52 -5.65 7.11 0 0 0
461 19 5 -0.054024 17.46 -6.45 7.68 0 0 0
462 19 2 -0.087053 18.7 -3.28 5.11 0 0 0
463 19 13 0.014437 19.59 -4.1 4.19 0 0 0
464 19 13 0.012516 17.42 -2.89 4.27 0 0 0
465 19 5 0.129562 19.15 -1.94 5.6 0 0 0
466 19 5 -0.030866 20.35 -1.83 6.32 0 0 0
467 19 5 -0.017661 20.78 -0.56 6.77 0 0 0
468 19 5 -0.05434 19.91 0.5 6.57 0 0 0
469 19 5 0.352747 18.86 0.46 5.65 0 0 0
470 19 5 -0.083881 18.46 -0.83 5.27 0 0 0
471 19 15 -0.532941 18.52 1.48 4.83 0 0 0
472 19 10 0.277028 19.28 2.63 4.83 0 0 0
473 19 7 0.220209 20.44 2.59 3.76 0 0 0
474 19 9 0.207945 21.42 3.76 4.06 0 0 0
475 19 17 -0.438528 19.83 2.85 2.49 0 0 0
476 20 17 -0.438563 -4.39 60.24 42.27 0 0 0
477 20 9 0.207821 -2.88 62.13 42.39 0 0 0
478 20 7 0.219871 -4.15 61.5 42.85 0 0 0
479 20 10 0.277353 -4.04 61.34 44.3 0 0 0
480 20 15 -0.53321 -4.27 62.59 44.81 0 0 0
481 20 5 0.352494 -4.09 62.74 46.19 0 0 0
482 20 5 -0.084366 -4.39 64.05 46.66 0 0 0
483 20 5 0.129276 -3.92 64.48 47.94 0 0 0
484 20 5 -0.029167 -3.55 63.57 48.91 0 0 0
485 20 5 -0.016657 -3.56 62.22 48.5 0 0 0
486 20 5 -0.054024 -3.49 61.89 47.14 0 0 0
487 20 2 -0.087053 -3.75 65.96 48.34 0 0 0
488 20 13 0.014437 -5.1 66.49 48.07 0 0 0
489 20 13 0.012516 -3.45 66.14 49.83 0 0 0
490 20 5 0.129562 -2.66 66.71 47.68 0 0 0
491 20 5 -0.030866 -2.3 67.99 48.19 0 0 0
492 20 5 -0.017661 -1.04 68.48 47.88 0 0 0
493 20 5 -0.05434 -0.1 67.66 47.25 0 0 0
494 20 5 0.352747 -0.5 66.49 46.59 0 0 0
495 20 5 -0.083881 -1.74 65.95 46.99 0 0 0
496 20 15 -0.532941 0.31 65.75 45.85 0 0 0
497 20 10 0.277028 -0.02 64.56 45.19 0 0 0
498 20 7 0.220209 1.23 64.23 44.4 0 0 0
499 20 9 0.207945 1.71 62.86 44.67 0 0 0
500 20 17 -0.438528 2.21 65.17 44.75 0 0 0
501 21 17 -0.438563 38.67 -17.2 10.44 0 0 0
502 21 9 0.207821 37.54 -16.72 8.52 0 0 0
503 21 7 0.219871 38.72 -16.37 9.33 0 0 0
504 21 10 0.277353 38.7 -14.89 9.67 0 0 0
505 21 15 -0.53321 39.1 -14.04 8.69 0 0 0
506 21 5 0.352494 39.51 -12.74 8.99 0 0 0
507 21 5 -0.084366 39.7 -12.54 10.35 0 0 0
508 21 5 0.129276 40.36 -11.44 10.85 0 0 0
509 21 5 -0.029167 40.45 -10.35 9.96 0 0 0
510 21 5 -0.016657 40.16 -10.44 8.59 0 0 0
511 21 5 -0.054024 39.78 -11.7 8.13 0 0 0
512 21 2 -0.087053 40.32 -11.05 12.29 0 0 0
513 21 13 0.014437 39.47 -9.82 12.54 0 0 0
514 21 13 0.012516 39.76 -12.28 13.03 0 0 0
515 21 5 0.129562 41.75 -10.81 12.72 0 0 0
516 21 5 -0.030866 42.34 -11.93 13.28 0 0 0
517 21 5 -0.017661 43.63 -11.94 13.85 0 0 0
518 21 5 -0.05434 43.97 -10.72 14.51 0 0 0
519 21 5 0.352747 43.41 -9.52 13.99 0 0 0
520 21 5 -0.083881 42.26 -9.55 13.16 0 0 0
521 21 15 -0.532941 44.0 -8.37 14.08 0 0 0
522 21 10 0.277028 44.98 -8.19 15.04 0 0 0
523 21 7 0.220209 45.92 -7.05 14.75 0 0 0
524 21 9 0.207945 46.04 -6.69 13.27 0 0 0
525 21 17 -0.438528 47.19 -7.44 15.22 0 0 0
526 22 17 -0.438563 26.91 54.58 52.5 0 0 0
527 22 9 0.207821 27.39 52.82 50.84 0 0 0
528 22 7 0.219871 26.59 54.06 51.24 0 0 0
529 22 10 0.277353 25.09 53.86 51.02 0 0 0
530 22 15 -0.53321 24.62 54.93 50.31 0 0 0
531 22 5 0.352494 24.27 54.74 48.99 0 0 0
532 22 5 -0.084366 24.28 53.47 48.44 0 0 0
533 22 5 0.129276 23.56 53.3 47.22 0 0 0
534 22 5 -0.029167 22.59 54.18 46.84 0 0 0
535 22 5 -0.016657 22.64 55.49 47.34 0 0 0
536 22 5 -0.054024 23.56 55.81 48.36 0 0 0
537 22 2 -0.087053 23.65 52.03 46.45 0 0 0
538 22 13 0.014437 25.03 51.55 46.59 0 0 0
539 22 13 0.012516 22.74 50.94 47.06 0 0 0
540 22 5 0.129562 23.26 52.13 45.03 0 0 0
541 22 5 -0.030866 24.27 52.42 44.13 0 0 0
542 22 5 -0.017661 24.05 52.48 42.73 0 0 0
543 22 5 -0.05434 23.1 51.6 42.3 0 0 0
544 22 5 0.352747 22.09 51.2 43.17 0 0 0
545 22 5 -0.083881 22.09 51.62 44.48 0 0 0
546 22 15 -0.532941 21.12 50.48 42.61 0 0 0
547 22 10 0.277028 19.8 50.51 43.13 0 0 0
548 22 7 0.220209 18.9 50.17 42.03 0 0 0
549 22 9 0.207945 18.71 51.34 41.05 0 0 0
550 22 17 -0.438528 17.69 49.9 42.56 0 0 0
551 23 17 -0.438563 70.85 45.46 36.6 0 0 0
552 23 9 0.207821 69.94 47.43 35.91 0 0 0
553 23 7 0.219871 71.16 46.57 35.86 0 0 0
554 23 10 0.277353 71.33 46.16 34.44 0 0 0
555 23 15 -0.53321 72.4 45.25 34.42 0 0 0
556 23 5 0.352494 73.03 44.89 33.27 0 0 0
557 23 5 -0.084366 72.35 45.11 32.06 0 0 0
558 23 5 0.129276 72.93 44.81 30.76 0 0 0
559 23 5 -0.029167 74.25 44.19 30.85 0 0 0
560 23 5 -0.016657 74.93 43.95 32.06 0 0 0
561 23 5 -0.054024 74.19 43.99 33.21 0 0 0
562 23 2 -0.087053 72.36 45.32 29.45 0 0 0
563 23 13 0.014437 71.81 44.12 28.75 0 0 0
564 23 13 0.012516 71.13 46.22 29.59 0 0 0
565 23 5 0.129562 73.43 46.04 28.66 0 0 0
566 23 5 -0.030866 73.47 47.43 28.47 0 0 0
567 23 5 -0.017661 74.1 48.08 27.42 0 0 0
568 23 5 -0.05434 74.78 47.29 26.5 0 0 0
569 23 5 0.352747 75.01 45.91 26.76 0 0 0
570 23 5 -0.083881 74.16 45.26 27.68 0 0 0
571 23 15 -0.532941 75.99 45.15 26.41 0 0 0
572 23 10 0.277028 76.61 45.51 25.27 0 0 0
573 23 7 0.220209 76.86 44.3 24.33 0 0 0
574 23 9 0.207945 75.65 44.18 23.34 0 0 0