LAMMPS data file via write_data, version 31 Mar 2017, timestep = 10000002

6020 atoms
19 atom types
6521 bonds
23 bond types
9537 angles
72 angle types
9720 dihedrals
7 dihedral types
1220 impropers
3 improper types

1.9965248942123992e+00 5.1208975105767365e+01 xlo xhi
1.7087659698860129e+00 5.0842134030115844e+01 ylo yhi
8.5906685155989848e-01 5.1134233148433935e+01 zlo zhi

Masses

1 12.011
2 12.011
3 14.027
4 13.019
5 13.019
6 13.019
7 13.019
8 14.027
9 14.027
10 14.027
11 15.035
12 15.035
13 15.035
14 15.999
15 15.9994
16 16.0227
17 17.0074
18 14.027
19 14.027

Pair Coeffs # lj/cut/coul/long/intel

1 0.05 3.8
2 0.05 3.8
3 0.066 3.5
4 0.11 3.75
5 0.11 3.75
6 0.118 3.8
7 0.118 3.8
8 0.14 3.85
9 0.14 3.85
10 0.14 3.85
11 0.16 3.91
12 0.16 3.91
13 0.16 3.91
14 0.17 3
15 0.17 3
16 0.17 3.3
17 0.17 3
18 0.175 3.905
19 0.175 3.905

Bond Coeffs # harmonic/intel

1 268 1.41
2 7.63635 1.46
3 317 1.52
4 268 1.53
5 320 1.38
6 390 1.4
7 390 1.56
8 650 1.46
9 400 1.55
10 570 1.4
11 268 1.51
12 268 1.55
13 1150 1.4
14 390 1.41
15 1150 1.51
16 320 1.35
17 390 1.57
18 570 1.39
19 268 1.54
20 500 1.46
21 390 1.52
22 320 1.4
23 390 1.51

Angle Coeffs # harmonic/intel

1 70 111.56
2 70 109.382
3 70 119.745
4 50 109.943
5 70 111.102
6 70 107.164
7 70 113.351
8 23.9006 121.649
9 70 118.841
10 70 112.094
11 80 109.874
12 70 109.393
13 23.9006 121.618
14 70 121.41
15 23.9006 109.624
16 23.9006 109.267
17 80 109.425
18 70 110.623
19 23.9006 118.997
20 150 120.243
21 70 119.385
22 70 119.381
23 70 120.565
24 70 120.053
25 70 120.068
26 70 120.934
27 150 109.366
28 70 108.139
29 70 118.839
30 70 109.09
31 60 123.263
32 60 123.278
33 150 120.246
34 63 109.907
35 80 109.859
36 70 120.544
37 70 108.16
38 70 108.202
39 70 119.751
40 23.9006 118.969
41 80 109.668
42 23.9006 109.359
43 70 105.871
44 50 109.913
45 70 107.245
46 70 106.447
47 70 111.075
48 70 112.486
49 50 110.039
50 70 121.415
51 70 106.682
52 70 110.013
53 70 109.211
54 60 105.014
55 150 109.561
56 150 113.177
57 70 109.374
58 70 112.09
59 70 111.859
60 70 118.05
61 70 120.901
62 70 114.059
63 50 110
64 60 104.964
65 80 109.753
66 70 109.495
67 23.9006 109.347
68 23.9006 109.336
69 70 109.508
70 23.9006 109.593
71 80 109.819
72 70 109.459

Dihedral Coeffs # nharmonic

1 6 0 -0 0 -0 0 -0
2 6 3 -0 -3 -0 0 -0
3 6 0.7 0.35 0.05 0.4 0 -0
4 6 0.797 0.371 0.674 1.1 0 -0
5 6 -0.275 -0.275 0 -0 0 -0
6 6 0.41 -0.68 0.25 1.34 0 -0
7 6 0.687 -0.139 0.5 1.326 0 -0

Improper Coeffs # cvff/intel

1 10.5 -1 2
2 15 -1 2
3 1.1 -1 2

Atoms # full

2027 82 9 2.0782100000000001e-01 1.0097635863199885e+01 1.1188503246134223e+01 3.7433535714967991e+00 1 0 0
2028 82 7 2.1987100000000001e-01 8.6489625678820694e+00 1.1288687063149672e+01 3.6843561266175846e+00 1 0 0
2029 82 10 2.7735300000000002e-01 7.7977653948469712e+00 1.0011398669638012e+01 3.5066971942640119e+00 1 0 0
2030 82 15 -5.3320999999999996e-01 8.0582584836652771e+00 9.0087252848660384e+00 4.5066037029743775e+00 1 0 0
2031 82 5 3.5249399999999997e-01 7.1928960198063256e+00 8.1013655242977585e+00 5.0182818982195245e+00 1 0 0
2032 82 5 -8.4365999999999997e-02 5.8484396181926659e+00 7.7975481773384985e+00 4.6164537402255572e+00 1 0 0
2036 82 5 -5.4024000000000003e-02 7.8194178564814978e+00 7.3090551128159005e+00 5.9846491557856130e+00 1 0 0
2026 82 17 -4.3856299999999998e-01 7.9239344728014869e+00 1.2549125898530678e+01 3.7584418227579541e+00 1 0 0
2034 82 5 -2.9166999999999998e-02 6.0337823264169108e+00 5.6576466174253923e+00 5.9831096039872751e+00 1 0 0
2035 82 5 -1.6657000000000002e-02 7.2925875867079650e+00 6.0486917733165564e+00 6.3836772649911557e+00 1 0 0
2033 82 5 1.2927600000000000e-01 5.2519792579049129e+00 6.4206096468635918e+00 4.9120494296874524e+00 1 0 0
204 9 10 2.7735300000000002e-01 5.8723923934335449e+00 1.1535019317673797e+01 6.6828948620311461e+00 1 0 0
2037 82 2 -8.7053000000000005e-02 3.9911320442192872e+00 5.7245199131895799e+00 4.3313254393020895e+00 1 0 0
2039 82 13 1.2515999999999999e-02 4.1267994406462893e+00 4.2536675623981388e+00 4.2462110847614838e+00 1 0 0
2038 82 13 1.4437000000000000e-02 3.9973289954399700e+00 6.1714952935825096e+00 2.8628633842501987e+00 1 0 0
2040 82 5 1.2956200000000001e-01 2.7123633752449150e+00 6.1071627518708640e+00 5.1072232610016579e+00 1 0 0
201 9 17 -4.3856299999999998e-01 3.8987242362008176e+00 9.9902408083688137e+00 6.6351632444321185e+00 1 0 0
203 9 7 2.1987100000000001e-01 5.1611300544886713e+00 1.0265175661292631e+01 7.1718099298533113e+00 1 0 0
5428 251 3 8.6193000000000006e-02 1.0443305955645325e+01 5.3960804675037668e+00 2.9976865270789834e+00 0 1 1
2041 82 5 -3.0866000000000001e-02 2.7032761370600706e+00 6.1232912825525299e+00 6.5685984461019338e+00 1 0 0
5998 299 18 -3.6103999999999997e-02 1.0382172887019552e+01 1.0661444795828242e+01 7.0855794072003251e+00 1 0 0
205 9 15 -5.3320999999999996e-01 5.5732582872646068e+00 1.2758743731318312e+01 7.4111226199981752e+00 1 0 0
202 9 9 2.0782100000000001e-01 5.7505465636877764e+00 9.4801321774930258e+00 8.2981688784469974e+00 1 0 0
5999 299 1 1.2872800000000001e-01 1.1013619332062623e+01 9.8345082051509980e+00 8.2659369813129544e+00 1 0 0
5424 251 18 -1.6263000000000000e-02 1.0702638329938056e+01 4.8797830793131407e+00 5.2946065112372391e+00 0 1 1
1761 71 5 -5.4024000000000003e-02 6.3728393380779895e+00 2.9607838703485063e+00 8.5591247643182733e+00 1 1 0
1760 71 5 -1.6657000000000002e-02 5.0986763178869650e+00 3.4699659193838062e+00 8.8973696971336480e+00 1 1 0
3570 143 5 -8.3880999999999997e-02 4.7151996907047504e+00 1.0077466899180820e+01 8.7933137315746901e-01 0 1 1
5429 251 16 -1.2154300000000000e-01 1.0782883700449588e+01 6.1010677298858011e+00 1.7666832693566976e+00 0 1 1
6003 299 16 -1.5326799999999999e-01 1.0714472086996031e+01 1.2205257496240792e+01 5.1733406735063054e+00 1 0 0
5432 251 12 -4.5268000000000003e-02 1.0495963456710369e+01 2.9722861336649888e+00 6.9373543985734587e+00 0 1 1
3565 143 5 1.2956200000000001e-01 3.2405072976313756e+00 1.0189010163602237e+01 1.0040903711670577e+00 0 1 1
4585 186 10 2.5545800000000002e-01 2.1528135003548301e+00 1.2557487182186637e+01 7.9544849813281244e+00 1 0 0
5624 267 12 -4.5268000000000003e-02 8.0104892260040081e+00 2.6448355300414432e+00 4.1635650769691956e+00 1 1 0
3574 143 9 2.0794499999999999e-01 9.3932504081000072e+00 7.1895381384487296e+00 1.1078045194152188e+00 0 1 1
6007 299 12 -4.1782000000000000e-02 1.0049725617445221e+01 8.7308079275035322e+00 8.6728574652238297e+00 1 0 0
4427 178 9 2.0782100000000001e-01 1.1666850352543834e+01 1.3855791184493880e+01 4.6656610499838020e+00 0 1 1
3563 143 13 1.4437000000000000e-02 3.4108823105132711e+00 1.1803227818139019e+01 3.1109437178355823e+00 0 1 1
5425 251 1 1.2388399999999999e-01 1.1575721007982098e+01 5.3690070486199577e+00 4.0686292009926870e+00 0 1 1
3575 143 17 -4.3852799999999997e-01 7.5351353574802964e+00 5.5779630716443735e+00 2.0815025581639262e+00 0 1 1
5997 299 4 1.4866499999999999e-01 1.1327151176934493e+01 1.1582853478690375e+01 6.2607294934628550e+00 1 0 0
3573 143 7 2.2020899999999999e-01 7.9921151159967208e+00 6.5116591983088714e+00 1.1863462659082324e+00 0 1 1
1756 71 5 3.5249399999999997e-01 6.8743442819097318e+00 1.7713553935629953e+00 9.1655481821931897e+00 1 1 0
3562 143 2 -8.7053000000000005e-02 2.6615289980230346e+00 1.1397550642937043e+01 1.7429711091233515e+00 0 1 1
5423 251 1 1.2872800000000001e-01 1.1485011895035745e+01 3.9996960325724440e+00 6.3918492753799292e+00 0 1 1
1759 71 5 -2.9166999999999998e-02 4.2863355480561900e+00 2.8627917397921605e+00 9.8412624910424196e+00 1 1 0
5509 258 1 1.2388399999999999e-01 2.0656053463328514e+00 9.3351379618551071e+00 1.1209817761025585e+01 1 0 0
1041 42 5 -3.0866000000000001e-02 2.3129012701764391e+00 1.3220041939255623e+01 1.4283618041149644e+01 1 0 0
1050 42 17 -4.3852799999999997e-01 8.2019159720498678e+00 1.2525524354340350e+01 9.6005567303673072e+00 1 0 0
5511 258 16 -1.5326799999999999e-01 5.4283282922575884e+00 9.9453751606596779e+00 9.4617476525791258e+00 1 0 0
1039 42 13 1.2515999999999999e-02 2.9647861298022233e+00 9.7990317386756391e+00 1.5507962244066889e+01 1 0 0
1282 52 5 -8.4365999999999997e-02 8.0079157253838815e+00 2.5493436127899143e+00 1.3919127080047048e+01 1 0 0
1295 52 5 -8.3880999999999997e-02 1.0282300722897507e+01 7.0260760428552391e+00 1.2795022979863770e+01 1 0 0
3383 136 5 1.2927600000000000e-01 1.0587643413158798e+01 1.1512217639831034e+01 1.5690873968424986e+01 1 0 0
3382 136 5 -8.4365999999999997e-02 1.0914998536022054e+01 1.2615083649977995e+01 1.6530432333514668e+01 1 0 0
1045 42 5 -8.3880999999999997e-02 4.5507677355973257e+00 1.2222841038884010e+01 1.3925543654983665e+01 1 0 0
1048 42 7 2.2020899999999999e-01 7.1561935759418578e+00 1.1898923667431426e+01 1.0240853306889607e+01 1 0 0
1286 52 5 -5.4024000000000003e-02 6.6016721379111711e+00 2.7825446275710632e+00 1.5909946010639421e+01 1 0 0
5510 258 18 -2.6483000000000000e-02 3.3590768465784926e+00 1.0019633377372351e+01 1.0849498187650429e+01 1 0 0
1049 42 9 2.0794499999999999e-01 6.8562554877064077e+00 1.0379299852827421e+01 1.0400006636012177e+01 1 0 0
5507 258 1 1.2872800000000001e-01 3.5127705411168728e+00 7.0450911069739952e+00 1.1538113406956318e+01 1 0 0
1285 52 5 -1.6657000000000002e-02 6.7682870066121410e+00 4.1957782649699151e+00 1.5827764458255581e+01 1 0 0
5506 258 18 -3.6103999999999997e-02 4.7843204829706139e+00 7.8190377982326318e+00 1.0955223942340725e+01 1 0 0
3391 136 5 -3.0866000000000001e-02 7.4790477141288303e+00 9.6652431373965548e+00 1.3975510884691323e+01 1 0 0
1284 52 5 -2.9166999999999998e-02 7.3783655882999879e+00 4.8167983532078065e+00 1.4697049841186313e+01 1 0 0
1287 52 2 -8.7053000000000005e-02 8.9195276729777540e+00 4.7246207498047239e+00 1.2591126416028510e+01 1 0 0
1289 52 13 1.2515999999999999e-02 8.0347991264508867e+00 5.4150934882723369e+00 1.1660149534343001e+01 1 0 0
1290 52 5 1.2956200000000001e-01 9.9764147508959518e+00 5.6941373819376784e+00 1.3251356204784290e+01 1 0 0
1283 52 5 1.2927600000000000e-01 8.0180418572368559e+00 3.9877574124440920e+00 1.3666378221584672e+01 1 0 0
3392 136 5 -1.7661000000000000e-02 6.4380305992628424e+00 8.8254767944163923e+00 1.4359130980309914e+01 1 0 0
3390 136 5 1.2956200000000001e-01 8.3358656777378393e+00 1.0193519763428464e+01 1.5022956190470079e+01 1 0 0
5505 258 4 1.4866499999999999e-01 4.3878287526730659e+00 9.1533571646298206e+00 1.0126064062298145e+01 1 0 0
3395 136 5 -8.3880999999999997e-02 8.3957202660974666e+00 9.5006103765040564e+00 1.6246533733671058e+01 1 0 0
5515 258 12 -4.1782000000000000e-02 3.8707105184281319e+00 6.0120350608090618e+00 1.2612562172655572e+01 1 0 0
3387 136 2 -8.7053000000000005e-02 9.3373088167364084e+00 1.1400855367050783e+01 1.4740731812156614e+01 1 0 0
3388 136 13 1.4437000000000000e-02 8.3728697736735818e+00 1.2534703032157299e+01 1.4910393948732548e+01 1 0 0
3389 136 13 1.2515999999999999e-02 9.7954316701541870e+00 1.1686429925026971e+01 1.3263217869913960e+01 1 0 0
3393 136 5 -5.4339999999999999e-02 6.6034507783615775e+00 8.0004466350574592e+00 1.5533707208050725e+01 1 0 0
1288 52 13 1.4437000000000000e-02 9.6228302343215564e+00 3.7072820565134004e+00 1.1747155495884188e+01 1 0 0
1046 42 15 -5.3294100000000000e-01 5.8374012002782250e+00 1.2643095136856781e+01 1.2194165562010468e+01 1 0 0
1047 42 10 2.7702800000000000e-01 6.1235117997202950e+00 1.2803029022924605e+01 1.0923614526310752e+01 1 0 0
1291 52 5 -3.0866000000000001e-02 1.0837697286012128e+01 5.2179355890180661e+00 1.4315334829026643e+01 1 0 0
3394 136 5 3.5274699999999998e-01 7.5611919625785644e+00 8.3669033807078783e+00 1.6528199957477479e+01 1 0 0
5516 258 12 -4.5268000000000003e-02 3.0003079532496608e+00 6.0841463160923777e+00 1.0404682372067978e+01 1 0 0
1044 42 5 3.5274699999999998e-01 4.7683500218677048e+00 1.3086948768400699e+01 1.2832990448799412e+01 1 0 0
1040 42 5 1.2956200000000001e-01 3.2792087301493451e+00 1.2165954011329932e+01 1.4658734326459214e+01 1 0 0
1038 42 13 1.4437000000000000e-02 4.2950394293580265e+00 1.1264799148278680e+01 1.6837851012128372e+01 1 0 0
1037 42 2 -8.7053000000000005e-02 3.0205089010888981e+00 1.1289612578748743e+01 1.5966521369117833e+01 1 0 0
3396 136 15 -5.3294100000000000e-01 7.7984979159546084e+00 7.5699040240275108e+00 1.7518174039250724e+01 1 0 0
1758 71 5 1.2927600000000000e-01 4.7666039022576250e+00 1.7630719946397853e+00 1.0588758537346475e+01 1 1 0
5508 258 18 -1.6263000000000000e-02 2.3811300199280394e+00 7.9784505271923516e+00 1.1989722914157150e+01 1 0 0
6008 299 12 -4.5268000000000003e-02 1.1280252167396407e+01 1.0791222500100158e+01 9.4288851849802224e+00 1 0 0
1281 52 5 3.5249399999999997e-01 7.4178869754498109e+00 1.9516891023582619e+00 1.5100349953318752e+01 1 0 0
2935 118 5 -1.6657000000000002e-02 1.0194978349129670e+01 2.1269460019687090e+00 1.7390833969003815e+01 0 1 1
3384 136 5 -2.9166999999999998e-02 1.1647756000264490e+01 1.0459972294924770e+01 1.5610208087325493e+01 1 0 0
1763 71 13 1.4437000000000000e-02 4.2584873760217423e+00 1.9240825032706956e+00 1.3053149072554076e+01 1 1 0
1294 52 5 3.5274699999999998e-01 1.1613396870587318e+01 7.5778376314968225e+00 1.2907336551515650e+01 1 0 0
5104 224 3 8.6193000000000006e-02 1.0938469605245130e+01 1.0059933863424096e+01 2.4835148764934143e+01 1 0 0
4834 202 18 -3.6103999999999997e-02 6.4210840542673582e+00 2.4261413121632343e+00 2.1496374969597735e+01 0 1 0
4469 179 5 3.5274699999999998e-01 2.2365945936163487e+00 2.9327763762739649e+00 2.1488190895064449e+01 1 0 0
4452 179 9 2.0782100000000001e-01 6.7244902822903123e+00 1.0865637472493587e+01 2.1938193272085574e+01 1 0 0
4842 202 12 -4.6766000000000002e-02 6.1274959145996259e+00 4.7779331586493958e+00 2.5060177979608760e+01 0 1 0
4467 179 5 -1.7661000000000000e-02 3.2780028485489643e+00 4.7382929985468412e+00 2.2768612187002407e+01 1 0 0
4454 179 10 2.7735300000000002e-01 4.4691663692836778e+00 1.1094873410165448e+01 2.0817378274923279e+01 1 0 0
4462 179 2 -8.7053000000000005e-02 2.7509889452146270e+00 6.0936581238335332e+00 1.9142943419749592e+01 1 0 0
3399 136 9 2.0794499999999999e-01 7.0755751051187126e+00 7.8845802507138592e+00 2.1203244213849448e+01 1 0 0
3400 136 17 -4.3852799999999997e-01 6.2924034333982748e+00 9.2008562942513130e+00 1.9174583593914079e+01 1 0 0
4844 202 12 -4.5268000000000003e-02 8.8667722865569267e+00 3.0864032587716275e+00 2.1295069219994794e+01 0 1 0
5102 224 18 -2.6483000000000000e-02 9.0942490971127370e+00 8.6730826537561967e+00 2.3609287534608747e+01 1 0 0
5098 224 18 -3.6103999999999997e-02 7.0157721400740378e+00 8.7222223197334916e+00 2.5205782754557859e+01 1 0 0
2936 118 5 -5.4024000000000003e-02 1.0158635261159896e+01 3.5257564873330889e+00 1.7653977242406992e+01 0 1 1
2931 118 5 3.5249399999999997e-01 1.1282622546460319e+01 4.2281251818954662e+00 1.8226010776795182e+01 0 1 1
4451 179 17 -4.3856299999999998e-01 4.6917457700375360e+00 1.2185899471792485e+01 2.2960511229190072e+01 1 0 0
5106 224 12 -4.6766000000000002e-02 1.1134807685408617e+01 7.5505679598708513e+00 2.4526357999406791e+01 1 0 0
4840 202 3 8.6193000000000006e-02 8.2526833487682190e+00 3.6445183921585720e+00 2.4739376234557984e+01 0 1 0
5103 224 16 -1.5326799999999999e-01 6.8065366797112823e+00 9.3198370652058102e+00 2.2661347766615989e+01 1 0 0
4836 202 18 -1.6263000000000000e-02 7.0553470025782401e+00 4.5433743330961365e+00 2.2681718699745542e+01 0 1 0
4841 202 16 -1.2154300000000000e-01 9.1016053687377223e+00 4.8265037634111589e+00 2.4886473824283534e+01 0 1 0
4838 202 18 -2.6483000000000000e-02 6.0868771929197836e+00 2.4675519263041190e+00 2.4005531712421671e+01 0 1 0
5101 224 1 1.2388399999999999e-01 1.0136859767111156e+01 8.6389915648750808e+00 2.4791172600377216e+01 1 0 0
3398 136 7 2.2020899999999999e-01 7.1749128651279328e+00 8.3446962738534438e+00 1.9796449984041551e+01 1 0 0
4835 202 1 1.2872800000000001e-01 7.4090215508767976e+00 3.6353211708612676e+00 2.1441554616562801e+01 0 1 0
4453 179 7 2.1987100000000001e-01 5.3043299753956505e+00 1.1300709462796517e+01 2.2042232519334750e+01 1 0 0
4466 179 5 -3.0866000000000001e-02 3.4236686705420150e+00 5.4833235410249710e+00 2.1586405983872947e+01 1 0 0
4455 179 15 -5.3320999999999996e-01 3.2199863255562065e+00 1.0752597235890299e+01 2.1208012198757562e+01 1 0 0
4837 202 1 1.2388399999999999e-01 6.8411831219877994e+00 3.8350834647195824e+00 2.4031066650521002e+01 0 1 0
4457 179 5 -8.4365999999999997e-02 2.9331669305574910e+00 8.5567804816204944e+00 1.9965815193729142e+01 1 0 0
5097 224 4 1.4866499999999999e-01 7.6560591991515299e+00 9.2590285209044616e+00 2.3856612368013632e+01 1 0 0
3397 136 10 2.7702800000000000e-01 8.2956412992580510e+00 7.8215193364783531e+00 1.8852520403211887e+01 1 0 0
4880 205 12 -4.5268000000000003e-02 8.4180979212748746e+00 1.3016991943227097e+01 1.9709828119436018e+01 1 0 0
4465 179 5 1.2956200000000001e-01 2.7615785491958298e+00 5.0643639821959088e+00 2.0309457983672367e+01 1 0 0
4456 179 5 3.5249399999999997e-01 2.4270142896611016e+00 9.7651454326854701e+00 2.0637002908376651e+01 1 0 0
701 29 17 -4.3856299999999998e-01 8.6191501909392834e+00 1.3338735055836606e+01 2.4159302770223576e+01 1 0 0
4843 202 12 -4.1782000000000000e-02 7.1844852042149601e+00 4.3700634058348635e+00 2.0126749217932183e+01 0 1 0
2930 118 15 -5.3320999999999996e-01 1.1166910514378049e+01 5.5885820072187622e+00 1.8122210781599854e+01 0 1 1
4464 179 13 1.2515999999999999e-02 4.1917819650255019e+00 6.1959053081184461e+00 1.8547616967908983e+01 1 0 0
2926 118 17 -4.3856299999999998e-01 1.0901306197560553e+01 7.2081417421290706e+00 2.0382891531712033e+01 0 1 1
4468 179 5 -5.4339999999999999e-02 2.5748505076322443e+00 3.5245858413644600e+00 2.2721579192114863e+01 1 0 0
4470 179 5 -8.3880999999999997e-02 2.2199426833033402e+00 3.6945600672068561e+00 2.0277685233916678e+01 1 0 0
4458 179 5 1.2927600000000000e-01 2.0411819125113806e+00 7.4318582050683331e+00 1.9655504412533922e+01 1 0 0
704 29 10 2.7735300000000002e-01 6.8782657872677513e+00 1.3497857992441066e+01 2.5881295860946711e+01 1 0 0
705 29 15 -5.3320999999999996e-01 5.5207267085625125e+00 1.3819179455327392e+01 2.5891541696138816e+01 1 0 0
407 17 5 -8.4365999999999997e-02 9.3294473541467973e+00 4.8144931728995957e+00 3.1446084158532461e+01 0 1 1
408 17 5 1.2927600000000000e-01 1.0334870032266883e+01 4.0777062762914209e+00 3.0679989560587053e+01 0 1 1
1223 49 7 2.2020899999999999e-01 2.8972698420028533e+00 4.0241145960218709e+00 3.2323363075704378e+01 1 0 -1
413 17 13 1.4437000000000000e-02 9.3278647181699874e+00 4.1925881272092136e+00 2.8388379940026883e+01 0 1 1
5470 255 18 -3.6103999999999997e-02 3.9224368597342054e+00 8.7974255497864497e+00 3.2900943534538698e+01 0 1 1
406 17 5 3.5249399999999997e-01 8.9482476018147725e+00 4.5139738696034932e+00 3.2764386067027516e+01 0 1 1
5480 255 12 -4.5268000000000003e-02 3.0788905378558620e+00 8.2682301151939903e+00 3.0498603309697959e+01 0 1 1
411 17 5 -5.4024000000000003e-02 9.4780549607909528e+00 3.2650137903463374e+00 3.3358506539188028e+01 0 1 1
409 17 5 -2.9166999999999998e-02 1.0810010492280997e+01 2.8952656577440834e+00 3.1365154354610333e+01 0 1 1
1222 49 10 2.7702800000000000e-01 4.0626551964981266e+00 3.6949025748261795e+00 3.1540472139438474e+01 1 0 -1
1648 66 7 2.2020899999999999e-01 1.1229576121257967e+01 1.2282511493454257e+01 2.7271435110082283e+01 1 0 0
5473 255 1 1.2388399999999999e-01 6.5427770092656514e+00 9.2489225329958558e+00 3.1481588484333276e+01 0 1 1
5477 255 16 -1.2154300000000000e-01 6.3652258113337590e+00 6.6151830683297970e+00 3.1247689152733535e+01 0 1 1
5476 255 3 8.6193000000000006e-02 7.0887038374465012e+00 7.8952243387332901e+00 3.0982572109573869e+01 0 1 1
5469 255 4 1.4866499999999999e-01 5.1200882020269329e+00 9.3073080692931889e+00 3.3759420024151595e+01 0 1 1
5474 255 18 -2.6483000000000000e-02 6.5105198316003081e+00 9.3395957214475125e+00 3.3051045176551938e+01 0 1 1
5471 255 1 1.2872800000000001e-01 3.8518438493849017e+00 9.3361983443359584e+00 3.1404260925294672e+01 0 1 1
5472 255 18 -1.6263000000000000e-02 5.2316646893852425e+00 9.6188388492146686e+00 3.0699517952920118e+01 0 1 1
711 29 5 -5.4024000000000003e-02 4.5259721738330754e+00 1.1720414483651002e+01 2.6959871246794311e+01 1 0 0
710 29 5 -1.6657000000000002e-02 3.3947336073690568e+00 1.1267227167781785e+01 2.7658352876188236e+01 1 0 0
1650 66 17 -4.3852799999999997e-01 1.0883751327356302e+01 1.1693860454202833e+01 2.8471883709288083e+01 1 0 0
405 17 15 -5.3320999999999996e-01 8.1216770778642768e+00 5.4274961087051627e+00 3.3380638063360536e+01 0 1 1
1224 49 9 2.0794499999999999e-01 3.2484167677934028e+00 4.2435663382858930e+00 3.3793067225983322e+01 1 0 -1
5478 255 12 -4.6766000000000002e-02 7.6795164145468728e+00 1.0254662402121175e+01 3.1085440524257933e+01 0 1 1
410 17 5 -1.6657000000000002e-02 1.0339419309402306e+01 2.4502394012066793e+00 3.2600879003594684e+01 0 1 1
1221 49 15 -5.3294100000000000e-01 3.7271383734504520e+00 2.6838079132535100e+00 3.0591250771577620e+01 1 0 -1
5479 255 12 -4.1782000000000000e-02 3.0413863075098995e+00 1.0588297476471533e+01 3.1400445062250672e+01 0 1 1
5107 224 12 -4.1782000000000000e-02 7.4362848430709301e+00 7.6128810000023073e+00 2.7493465222450851e+01 1 0 0
5108 224 12 -4.5268000000000003e-02 7.9011477495954585e+00 9.8549111252723236e+00 2.7280926518797521e+01 1 0 0
706 29 5 3.5249399999999997e-01 4.5413578579552176e+00 1.3052853521715202e+01 2.6413989922775500e+01 1 0 0
414 17 13 1.2515999999999999e-02 1.0778610337965222e+01 6.0419621918278086e+00 2.9000849003205278e+01 0 1 1
412 17 2 -8.7053000000000005e-02 1.0626344743883450e+01 4.5220832464879104e+00 2.9217952080451671e+01 0 1 1
708 29 5 1.2927600000000000e-01 2.1531225421659599e+00 1.3381402565226674e+01 2.7219853115083826e+01 1 0 0
1218 49 5 -5.4339999999999999e-02 5.5352482361925253e+00 2.7573074258633579e+00 2.8957081455748988e+01 1 0 -1
1219 49 5 3.5274699999999998e-01 4.4641097075313008e+00 2.1482941332221195e+00 2.9650996769787888e+01 1 0 -1
5099 224 1 1.2872800000000001e-01 7.9611214792524994e+00 8.5979549853589230e+00 2.6469163858366514e+01 1 0 0
747 30 10 2.7702800000000000e-01 1.1731983324162744e+01 8.2775958642694949e+00 3.2194134601565139e+01 1 0 0
5840 285 12 -4.5268000000000003e-02 2.1332048683963993e+00 4.0744542973501563e+00 2.7095314875304382e+01 1 0 0
4901 207 16 -1.2154300000000000e-01 4.1830874289989373e+00 1.2692106429007982e+01 3.3971163435633528e+01 2 0 -1
709 29 5 -2.9166999999999998e-02 2.1842244695331172e+00 1.2006664471502857e+01 2.7600899182504140e+01 1 0 0
1647 66 10 2.7702800000000000e-01 1.1122644176819524e+01 1.3803850052052940e+01 2.7174259824203705e+01 1 0 0
5100 224 18 -1.6263000000000000e-02 9.4594331975388730e+00 8.2561464447412156e+00 2.6200468215021310e+01 1 0 0
1217 49 5 -1.7661000000000000e-02 6.2614135916894966e+00 2.0410482709063746e+00 2.7993188994900763e+01 1 0 -1
707 29 5 -8.4365999999999997e-02 3.3766420427009085e+00 1.3833735278136245e+01 2.6591348982160788e+01 1 0 0
1649 66 9 2.0794499999999999e-01 1.1809730046317650e+01 1.1656205750456246e+01 2.6017786572080130e+01 1 0 0
5105 224 16 -1.2154300000000000e-01 1.1564497430427416e+01 1.0455898970301320e+01 2.6040192783478730e+01 1 0 0
4925 209 16 -1.2154300000000000e-01 3.0774129453705958e+00 2.9622780436162821e+00 3.4631668137144146e+01 1 0 -1
192 8 5 -1.7661000000000000e-02 1.1827881043496525e+01 1.2150088082144867e+01 4.0770273539538863e+01 0 1 0
404 17 10 2.7735300000000002e-01 7.6184640641977239e+00 5.2854560613995885e+00 3.4699709770258593e+01 0 1 1
2001 81 17 -4.3856299999999998e-01 2.4800712372282487e+00 7.0269651841074774e+00 3.5541206541522598e+01 0 1 1
4902 207 12 -4.6766000000000002e-02 4.6613872255482054e+00 1.2793185637223711e+01 3.7028700748796041e+01 2 0 -1
402 17 9 2.0782100000000001e-01 5.6244934711146479e+00 6.8608043792401912e+00 3.5111672812217279e+01 0 1 1
401 17 17 -4.3856299999999998e-01 8.1047926866278246e+00 7.2996641945961693e+00 3.5920889070284332e+01 0 1 1
4926 209 12 -4.6766000000000002e-02 2.7124823040414991e+00 3.6578223835452199e+00 3.7441730718141699e+01 1 0 -1
403 17 7 2.1987100000000001e-01 7.0894311500125271e+00 6.5366192695151089e+00 3.5310221692830879e+01 0 1 1
5475 255 16 -1.5326799999999999e-01 5.2569471805707417e+00 8.7025505686910414e+00 3.5060072960356152e+01 0 1 1
4924 209 3 8.6193000000000006e-02 4.1802122612573278e+00 2.8398543163629624e+00 3.5602264860242954e+01 1 0 -1
2002 81 9 2.0782100000000001e-01 3.9897762989867598e+00 9.0188684490853959e+00 3.6217364166295980e+01 0 1 1
1431 58 5 3.5249399999999997e-01 2.2443690133599286e+00 5.5353533986892423e+00 4.0368632215360151e+01 1 1 0
3304 133 10 2.7735300000000002e-01 9.7530677296898176e+00 5.9501009590688003e+00 3.8684354636731570e+01 1 0 -1
3301 133 17 -4.3856299999999998e-01 1.0302931975258332e+01 3.8226412849164806e+00 3.9833134487160677e+01 1 0 -1
4921 209 1 1.2388399999999999e-01 3.8225545296540271e+00 2.6340499189933735e+00 3.7086836799398085e+01 1 0 -1
4922 209 18 -2.6483000000000000e-02 5.0930445163835962e+00 2.9325153597154578e+00 3.7978344971657251e+01 1 0 -1
1427 58 9 2.0782100000000001e-01 6.3318799729220894e+00 7.0194999252046895e+00 4.0606527026311070e+01 1 1 0
1428 58 7 2.1987100000000001e-01 5.3520001776853086e+00 6.8244078168951772e+00 3.9497164997379329e+01 1 1 0
1429 58 10 2.7735300000000002e-01 3.9285102632660376e+00 7.2632756277906196e+00 3.9693077200199156e+01 1 1 0
182 8 5 -8.4365999999999997e-02 6.1026217749552840e+00 1.1812660382420654e+01 4.0578785112932891e+01 0 1 0
183 8 5 1.2927600000000000e-01 7.4698492479168426e+00 1.1258183077960407e+01 4.0424639268632333e+01 0 1 0
187 8 2 -8.7053000000000005e-02 8.3623528536557892e+00 1.1250055022289866e+01 3.9116571902655778e+01 0 1 0
188 8 13 1.4437000000000000e-02 7.9441181009504263e+00 1.0127862303078221e+01 3.8164652388333863e+01 0 1 0
189 8 13 1.2515999999999999e-02 8.1310569521116527e+00 1.2559617171471062e+01 3.8367956512869455e+01 0 1 0
3302 133 9 2.0782100000000001e-01 8.0285644389867361e+00 4.0466829643542148e+00 3.8530440675829482e+01 1 0 -1
3303 133 7 2.1987100000000001e-01 9.4057779432020894e+00 4.4809809332245756e+00 3.9009388896323856e+01 1 0 -1
3305 133 15 -5.3320999999999996e-01 9.9258530391471425e+00 6.6968610240862398e+00 3.9888153946773997e+01 1 0 -1
1426 58 17 -4.3856299999999998e-01 5.7274933776068444e+00 6.2249793382042888e+00 3.8271265229001642e+01 1 1 0
1430 58 15 -5.3320999999999996e-01 2.8719894269007797e+00 6.3758617807944375e+00 3.9403468778379064e+01 1 1 0
190 8 5 1.2956200000000001e-01 9.9220592436475812e+00 1.1340030331487913e+01 3.9441369915757363e+01 0 1 0
5801 282 16 -1.2154300000000000e-01 6.7048943871584541e+00 5.8290837700473750e+00 4.1039113530134799e+01 1 0 -1
179 8 10 2.7735300000000002e-01 2.9704402338850500e+00 1.2452101318024585e+01 4.1243295006069033e+01 0 1 0
184 8 5 -2.9166999999999998e-02 7.9409792907981913e+00 1.0497733536966182e+01 4.1633820494216451e+01 0 1 0
181 8 5 3.5249399999999997e-01 5.2263494031140594e+00 1.1360344720585728e+01 4.1595259468930536e+01 0 1 0
5802 282 12 -4.6766000000000002e-02 6.7658048736390830e+00 3.0578224243585734e+00 4.2012901494249547e+01 1 0 -1
191 8 5 -3.0866000000000001e-02 1.0478395601026884e+01 1.2324987027535641e+01 4.0362515430435721e+01 0 1 0
180 8 15 -5.3320999999999996e-01 3.9715043220075339e+00 1.1720134009599125e+01 4.1916643192819961e+01 0 1 0
2003 81 7 2.1987100000000001e-01 2.6426850991915534e+00 8.3184823521870932e+00 3.6011258516625091e+01 0 1 1
4923 209 16 -1.5326799999999999e-01 7.4808951183841392e+00 2.3448735262691462e+00 3.8832772882021530e+01 1 0 -1
1436 58 5 -5.4024000000000003e-02 3.0319168002023074e+00 4.7056455962583614e+00 4.1235148266103707e+01 1 1 0
176 8 17 -4.3856299999999998e-01 2.4255389153702724e+00 1.0588507308721571e+01 3.9742783957370534e+01 0 1 0
195 8 5 -8.3880999999999997e-02 1.0832593565867150e+01 1.0526069468813082e+01 3.8664293575742889e+01 0 1 0
4917 209 4 1.4866499999999999e-01 6.2719173085309885e+00 1.9361040538479131e+00 3.8090139285172768e+01 1 0 -1
3306 133 5 3.5249399999999997e-01 1.1069654359283223e+01 6.9253653113184841e+00 4.0615426662148508e+01 1 0 -1
3307 133 5 -8.4365999999999997e-02 1.0976332305459332e+01 7.8220503941192243e+00 4.1741231504528059e+01 1 0 -1
1435 58 5 -1.6657000000000002e-02 2.4411175254303754e+00 3.7756163912579725e+00 4.2115041380189183e+01 1 1 0
4900 207 3 8.6193000000000006e-02 3.2734414495016444e+00 1.3126392754777854e+01 3.5032689349266889e+01 2 0 -1
5800 282 3 8.6193000000000006e-02 6.6752132644505595e+00 5.5921063260493948e+00 4.2484243176354468e+01 1 0 -1
185 8 5 -1.6657000000000002e-02 6.9964814772254265e+00 9.8285521048123385e+00 4.2482080711270328e+01 0 1 0
186 8 5 -5.4024000000000003e-02 5.6852051655552742e+00 1.0315856747910855e+01 4.2495766106137211e+01 0 1 0
3901 157 17 -4.3856299999999998e-01 9.2165534292400064e+00 2.2681557943939743e+00 3.6206850705558907e+01 1 0 -1
4897 207 1 1.2388399999999999e-01 3.9913313550555598e+00 1.3919471635792496e+01 3.6232995937724226e+01 2 0 -1
3322 133 10 2.7702800000000000e-01 6.9972006703520506e+00 6.4697791401163283e+00 4.6969189396044129e+01 1 0 -1
686 28 5 -5.4024000000000003e-02 1.0413560495584930e+01 1.8753795963910653e+00 4.9581841391592036e+01 0 1 0
767 31 5 -1.7661000000000000e-02 2.2586699302543454e+00 3.9707232104562995e+00 5.0658194156151609e+01 1 0 -1
3571 143 15 -5.3294100000000000e-01 6.3159139151190109e+00 8.2906578311794767e+00 5.1086849425302944e+01 0 1 0
5803 282 12 -4.1782000000000000e-02 1.0671718327813112e+01 2.4062241948566347e+00 4.3032679489346435e+01 1 0 -1
3572 143 10 2.7702800000000000e-01 7.0085491185231010e+00 7.1570016455129970e+00 5.0565796069964975e+01 0 1 0
3556 143 5 3.5249399999999997e-01 3.3445913456477232e+00 1.3753148292986127e+01 4.9103705400568018e+01 0 1 0
5796 282 18 -1.6263000000000000e-02 8.8979420036303765e+00 4.4816271140400268e+00 4.2966980443800836e+01 1 0 -1
3557 143 5 -8.4365999999999997e-02 3.6526119322302115e+00 1.3091912321094133e+01 5.0342510866489476e+01 0 1 0
4435 178 5 -1.6657000000000002e-02 1.1042100455000938e+01 1.0952780025935308e+01 4.9084757519007312e+01 0 1 0