LAMMPS data file via write_data, version 31 Mar 2017, timestep = 10000002

6020 atoms
19 atom types
6521 bonds
23 bond types
9537 angles
72 angle types
9720 dihedrals
7 dihedral types
1220 impropers
3 improper types

1.5352600642365211e+00 5.1670239935764066e+01 xlo xhi
1.3948236700406760e+00 5.1156076329958317e+01 ylo yhi
1.7068814194775506e+00 5.0286418580523303e+01 zlo zhi

Masses

1 12.011
2 12.011
3 14.027
4 13.019
5 13.019
6 13.019
7 13.019
8 14.027
9 14.027
10 14.027
11 15.035
12 15.035
13 15.035
14 15.999
15 15.9994
16 16.0227
17 17.0074
18 14.027
19 14.027

Pair Coeffs # lj/cut/coul/long/intel

1 0.05 3.8
2 0.05 3.8
3 0.066 3.5
4 0.11 3.75
5 0.11 3.75
6 0.118 3.8
7 0.118 3.8
8 0.14 3.85
9 0.14 3.85
10 0.14 3.85
11 0.16 3.91
12 0.16 3.91
13 0.16 3.91
14 0.17 3
15 0.17 3
16 0.17 3.3
17 0.17 3
18 0.175 3.905
19 0.175 3.905

Bond Coeffs # harmonic/intel

1 268 1.41
2 7.63635 1.46
3 317 1.52
4 268 1.53
5 320 1.38
6 390 1.4
7 390 1.56
8 650 1.46
9 400 1.55
10 570 1.4
11 268 1.51
12 268 1.55
13 1150 1.4
14 390 1.41
15 1150 1.51
16 320 1.35
17 390 1.57
18 570 1.39
19 268 1.54
20 500 1.46
21 390 1.52
22 320 1.4
23 390 1.51

Angle Coeffs # harmonic/intel

1 70 111.56
2 70 109.382
3 70 119.745
4 50 109.943
5 70 111.102
6 70 107.164
7 70 113.351
8 23.9006 121.649
9 70 118.841
10 70 112.094
11 80 109.874
12 70 109.393
13 23.9006 121.618
14 70 121.41
15 23.9006 109.624
16 23.9006 109.267
17 80 109.425
18 70 110.623
19 23.9006 118.997
20 150 120.243
21 70 119.385
22 70 119.381
23 70 120.565
24 70 120.053
25 70 120.068
26 70 120.934
27 150 109.366
28 70 108.139
29 70 118.839
30 70 109.09
31 60 123.263
32 60 123.278
33 150 120.246
34 63 109.907
35 80 109.859
36 70 120.544
37 70 108.16
38 70 108.202
39 70 119.751
40 23.9006 118.969
41 80 109.668
42 23.9006 109.359
43 70 105.871
44 50 109.913
45 70 107.245
46 70 106.447
47 70 111.075
48 70 112.486
49 50 110.039
50 70 121.415
51 70 106.682
52 70 110.013
53 70 109.211
54 60 105.014
55 150 109.561
56 150 113.177
57 70 109.374
58 70 112.09
59 70 111.859
60 70 118.05
61 70 120.901
62 70 114.059
63 50 110
64 60 104.964
65 80 109.753
66 70 109.495
67 23.9006 109.347
68 23.9006 109.336
69 70 109.508
70 23.9006 109.593
71 80 109.819
72 70 109.459

Dihedral Coeffs # nharmonic

1 6 0 -0 0 -0 0 -0
2 6 3 -0 -3 -0 0 -0
3 6 0.7 0.35 0.05 0.4 0 -0
4 6 0.797 0.371 0.674 1.1 0 -0
5 6 -0.275 -0.275 0 -0 0 -0
6 6 0.41 -0.68 0.25 1.34 0 -0
7 6 0.687 -0.139 0.5 1.326 0 -0

Improper Coeffs # cvff/intel

1 10.5 -1 2
2 15 -1 2
3 1.1 -1 2

Atoms # full

207 9 5 -8.4365999999999997e-02 6.3168210142768615e+00 1.2304841463250233e+01 5.4141863518609803e+00 1 0 0
208 9 5 1.2927600000000000e-01 6.8540679642384372e+00 1.1605010282699993e+01 4.2446004340954779e+00 1 0 0
209 9 5 -2.9166999999999998e-02 8.2900303020481765e+00 1.1353871710476927e+01 4.2483924092619638e+00 1 0 0
2026 82 17 -4.3856299999999998e-01 8.4952925392780010e+00 7.7442951252309937e+00 5.3635063220119825e+00 1 0 0
2027 82 9 2.0782100000000001e-01 1.0310580334561250e+01 6.8640848464945927e+00 3.6797517311513674e+00 1 0 0
2028 82 7 2.1987100000000001e-01 8.9881026810077174e+00 6.7977481846548038e+00 4.4510642868069086e+00 1 0 0
2029 82 10 2.7735300000000002e-01 8.1548695246798033e+00 5.5976074859869209e+00 4.2266200452929192e+00 1 0 0
2030 82 15 -5.3320999999999996e-01 6.8468121134496309e+00 5.9333453891605821e+00 3.9961531097238407e+00 1 0 0
2031 82 5 3.5249399999999997e-01 5.7709515346745137e+00 6.0442983137873689e+00 4.8570752127033998e+00 1 0 0
2032 82 5 -8.4365999999999997e-02 4.5698916386458821e+00 6.4093259158448461e+00 4.1586951779431818e+00 1 0 0
2033 82 5 1.2927600000000000e-01 3.2476359043923173e+00 6.3905348367666432e+00 4.9379361386856999e+00 1 0 0
2034 82 5 -2.9166999999999998e-02 3.2939154840311966e+00 6.0563635391010155e+00 6.4238095815478902e+00 1 0 0
2035 82 5 -1.6657000000000002e-02 4.5883080765136857e+00 6.1404649064632029e+00 7.0171970208338061e+00 1 0 0
2036 82 5 -5.4024000000000003e-02 5.7370695562354896e+00 5.8717073784722844e+00 6.2767074731952990e+00 1 0 0
1297 52 10 2.7702800000000000e-01 9.8946168470095834e+00 9.1641097999440309e+00 8.4659754384213208e+00 1 0 0
5624 267 12 -4.5268000000000003e-02 7.6040771113010788e+00 3.1528102848921558e+00 7.8559371762343506e+00 1 1 0
214 9 13 1.2515999999999999e-02 4.4837530845897149e+00 1.1158439827731005e+01 3.1748541443500717e+00 1 0 0
212 9 2 -8.7053000000000005e-02 6.0054955825006342e+00 1.1137305066484256e+01 2.9990057715664422e+00 1 0 0
210 9 5 -1.6657000000000002e-02 9.1152001243181804e+00 1.2227086062347217e+01 4.9378659638467735e+00 1 0 0
4582 186 17 -4.4213700000000000e-01 3.8713625311703397e+00 1.1169540927022824e+01 7.1798685081050921e+00 1 0 0
1755 71 15 -5.3320999999999996e-01 4.1141191324917106e+00 2.5657216689716984e+00 7.6387004853106308e+00 1 1 0
1754 71 10 2.7735300000000002e-01 3.3768436822811836e+00 2.7367781658763422e+00 6.4327099688775853e+00 1 1 0
5620 267 3 8.6193000000000006e-02 7.5730599610376714e+00 2.1929635237452878e+00 3.8310350724093225e+00 1 1 0
1293 52 5 -5.4339999999999999e-02 1.0654640813802464e+01 6.3460492632092809e+00 8.8789244273896806e+00 1 0 0
1751 71 17 -4.3856299999999998e-01 4.0764407859458034e+00 2.1759379604937559e+00 4.1308838921197895e+00 1 1 0
215 9 5 1.2956200000000001e-01 6.2619745508958848e+00 1.1967446954253191e+01 1.7383349995077326e+00 1 0 0
206 9 5 3.5249399999999997e-01 7.1917939961164752e+00 1.3120079284874832e+01 6.1813727385373083e+00 1 0 0
5615 267 1 1.2872800000000001e-01 8.1491163100772290e+00 1.7951554860599137e+00 7.3421553503969967e+00 1 1 0
1292 52 5 -1.7661000000000000e-02 1.0996115426740223e+01 5.0357540228534088e+00 9.2339188814333379e+00 1 0 0
1756 71 5 3.5249399999999997e-01 3.7317373939153438e+00 2.8954190329840452e+00 8.8967705171262708e+00 1 1 0
5513 258 16 -1.2154300000000000e-01 1.7215795169751331e+00 9.0660072248425454e+00 8.3148831043687998e+00 1 0 0
4583 186 7 2.2080700000000000e-01 2.4825043324495146e+00 1.1402450462106684e+01 7.0492594512523876e+00 1 0 0
213 9 13 1.4437000000000000e-02 6.1124346563376504e+00 9.5479212770173589e+00 2.8961330998444894e+00 1 0 0
211 9 5 -5.4024000000000003e-02 8.5748338021535346e+00 1.3167539689426343e+01 5.8671343623295220e+00 1 0 0
4585 186 10 2.5545800000000002e-01 1.9957921683880959e+00 1.2341144107075628e+01 5.9338043741550832e+00 1 0 0
4426 178 17 -4.3856299999999998e-01 1.0527319036312013e+01 3.2329339318433008e+00 2.1924912611437994e+00 0 1 1
1757 71 5 -8.4365999999999997e-02 2.4376574948004106e+00 3.3900546549773209e+00 9.2885596749228778e+00 1 1 0
202 9 9 2.0782100000000001e-01 5.7528437708217686e+00 1.2113185678870304e+01 9.6938279104354592e+00 1 0 0
1298 52 7 2.2020899999999999e-01 1.1392791000035906e+01 9.5898321935968642e+00 8.3561955375841119e+00 1 0 0
203 9 7 2.1987100000000001e-01 5.8798727392406640e+00 1.3593127136789670e+01 9.4657169911420524e+00 1 0 0
220 9 5 -8.3880999999999997e-02 6.8891983814812559e+00 1.3254141368895525e+01 1.8715162883858765e+00 1 0 0
1753 71 7 2.1987100000000001e-01 3.8130781248272934e+00 1.7022983459423926e+00 5.3832079411714613e+00 1 1 0
1296 52 15 -5.3294100000000000e-01 9.6038101715732029e+00 8.3863358927368452e+00 9.5613811058414182e+00 1 0 0
1294 52 5 3.5274699999999998e-01 9.8190669245465489e+00 7.1230856494286332e+00 9.7396093932765009e+00 1 0 0
5621 267 16 -1.2154300000000000e-01 6.9478556276496501e+00 1.6896847464750113e+00 2.6094084236391337e+00 1 1 0
2038 82 13 1.4437000000000000e-02 1.6311719898550239e+00 8.3203095966091851e+00 4.6471105522237384e+00 1 0 0
5616 267 18 -1.6263000000000000e-02 8.8617840431752732e+00 1.8747934531417219e+00 5.9431313229542297e+00 1 1 0
4584 186 15 -4.9989699999999998e-01 2.7838801187245226e+00 1.3512935533161128e+01 5.9964950700904334e+00 1 0 0
5623 267 12 -4.1782000000000000e-02 9.1496101184729799e+00 1.5916924646716188e+00 8.4106152110333010e+00 1 1 0
2039 82 13 1.2515999999999999e-02 1.6830036358832672e+00 6.7457842929336760e+00 2.7069866792228661e+00 1 0 0
2037 82 2 -8.7053000000000005e-02 1.8353232312611234e+00 6.7912935589463457e+00 4.2790928645739026e+00 1 0 0
1758 71 5 1.2927600000000000e-01 1.9536835263517562e+00 3.2851382716633992e+00 1.0699193234571055e+01 1 1 0
1761 71 5 -5.4024000000000003e-02 4.7499244123079976e+00 2.7769519279235579e+00 9.8466391936861868e+00 1 1 0
5508 258 18 -1.6263000000000000e-02 2.9811867509516055e+00 7.5312922615594333e+00 1.0820612748239146e+01 1 0 0
5509 258 1 1.2388399999999999e-01 2.1800699009851456e+00 8.8806878287452502e+00 1.0773443147146359e+01 1 0 0
4465 179 5 1.2956200000000001e-01 1.8223794949218663e+00 5.8685725388662480e+00 1.6873294928598582e+01 1 0 0
5516 258 12 -4.5268000000000003e-02 5.3325807062820267e+00 6.7111531522826064e+00 1.0336318771344539e+01 1 0 0
4459 179 5 -2.9166999999999998e-02 2.6131930032261503e+00 9.1516702005506225e+00 1.5166364758913280e+01 1 0 0
1759 71 5 -2.9166999999999998e-02 3.1291687816605678e+00 3.1365293372751619e+00 1.1648371191925156e+01 1 1 0
1050 42 17 -4.3852799999999997e-01 3.0400576796994399e+00 1.3262273027132245e+01 1.1713197890512102e+01 1 0 0
1291 52 5 -3.0866000000000001e-02 1.0449709986585031e+01 4.4604110406551492e+00 1.0420076895863394e+01 1 0 0
1048 42 7 2.2020899999999999e-01 3.9361925022108926e+00 1.3348402589115246e+01 1.2778460491879022e+01 1 0 0
5507 258 1 1.2872800000000001e-01 4.4922488504976350e+00 7.4788835471448358e+00 1.1383520496544193e+01 1 0 0
5505 258 4 1.4866499999999999e-01 4.3044253874430485e+00 1.0130154237623497e+01 1.1755679397624428e+01 1 0 0
4460 179 5 -1.6657000000000002e-02 3.5248301054008331e+00 1.0148875504000380e+01 1.5501082837978064e+01 1 0 0
5510 258 18 -2.6483000000000000e-02 3.1080564218553866e+00 1.0138296152164404e+01 1.0731128643342954e+01 1 0 0
5511 258 16 -1.5326799999999999e-01 5.2346291118229669e+00 1.1300612003599960e+01 1.1586202630060379e+01 1 0 0
5506 258 18 -3.6103999999999997e-02 5.2305038365723444e+00 8.8871461692968694e+00 1.1466248958707583e+01 1 0 0
5515 258 12 -4.1782000000000000e-02 4.5616868067525065e+00 6.6161085211688064e+00 1.2717685081066643e+01 1 0 0
1295 52 5 -8.3880999999999997e-02 9.3400865130404451e+00 6.5943216788097248e+00 1.0962975239851581e+01 1 0 0
3377 136 9 2.0782100000000001e-01 1.0911133477720890e+01 1.1405593645708956e+01 1.1774680115738430e+01 1 0 0
1288 52 13 1.4437000000000000e-02 7.7992596197902175e+00 4.4204132214179719e+00 1.2945631347480457e+01 1 0 0
5105 224 16 -1.2154300000000000e-01 9.3272065045623549e+00 1.1410023164793982e+01 1.6991640397347652e+01 1 0 0
3382 136 5 -8.4365999999999997e-02 1.0375344044292707e+01 9.6777315173535428e+00 1.5839685561320330e+01 1 0 0
1289 52 13 1.2515999999999999e-02 9.5885260207684073e+00 5.7520369903285866e+00 1.3776957000594686e+01 1 0 0
1287 52 2 -8.7053000000000005e-02 9.3301786823224653e+00 4.6329691936687558e+00 1.2766286699454149e+01 1 0 0
1290 52 5 1.2956200000000001e-01 9.7695324645149331e+00 5.2581385974164796e+00 1.1412543679001660e+01 1 0 0
3381 136 5 3.5249399999999997e-01 8.4900013250238047e+00 1.0274764018013279e+01 1.5114081365041203e+01 1 0 0
3380 136 15 -5.3320999999999996e-01 8.2751115497440715e+00 1.0176443592557431e+01 1.3782694176855044e+01 1 0 0
3386 136 5 -5.4024000000000003e-02 7.0210686552379826e+00 1.1056001034494027e+01 1.6531960000800193e+01 1 0 0
3379 136 10 2.7735300000000002e-01 9.0529545497727852e+00 9.8879429562674801e+00 1.2656222532470601e+01 1 0 0
3378 136 7 2.1987100000000001e-01 9.5039046743211628e+00 1.1235066951247473e+01 1.2111657277054391e+01 1 0 0
1049 42 9 2.0794499999999999e-01 5.1522460314938066e+00 1.2503857465579229e+01 1.2809124136663833e+01 1 0 0
1283 52 5 1.2927600000000000e-01 1.0121821821545655e+01 3.3159618515073004e+00 1.3130147058277142e+01 1 0 0
5106 224 12 -4.6766000000000002e-02 6.5198916286860209e+00 7.9296884617218639e+00 1.6334078033467648e+01 1 0 0
4461 179 5 -5.4024000000000003e-02 3.2596993647572545e+00 1.0875816410842331e+01 1.6718002953909096e+01 1 0 0
3376 136 17 -4.3856299999999998e-01 8.5077351988490122e+00 1.2045235316033374e+01 1.1569666096458468e+01 1 0 0
4466 179 5 -3.0866000000000001e-02 3.1912863545683994e+00 5.9697655970591370e+00 1.7422021461610768e+01 1 0 0
1760 71 5 -1.6657000000000002e-02 4.3522907771152006e+00 2.5603638499816803e+00 1.1194318119759677e+01 1 1 0
4467 179 5 -1.7661000000000000e-02 4.0084584408649402e+00 4.8120574605945423e+00 1.7595771172886590e+01 1 0 0
5104 224 3 8.6193000000000006e-02 8.6046260721278962e+00 9.4105026978850947e+00 1.7329146606756964e+01 1 0 0
5101 224 1 1.2388399999999999e-01 7.2724587413467665e+00 8.3946946965869476e+00 1.7595379203902198e+01 1 0 0
4468 179 5 -5.4339999999999999e-02 3.3553211332694657e+00 3.5301341017490566e+00 1.7608328399460493e+01 1 0 0
4456 179 5 3.5249399999999997e-01 2.4427698444229566e+00 1.0356632335315705e+01 1.7760321063189888e+01 1 0 0
5100 224 18 -1.6263000000000000e-02 8.1797539080054307e+00 7.0888283309032563e+00 1.7776870269028571e+01 1 0 0
1282 52 5 -8.4365999999999997e-02 9.6788932148084452e+00 1.9783459040192111e+00 1.2653066140047061e+01 1 0 0
4457 179 5 -8.4365999999999997e-02 1.6400723601273908e+00 9.2536390843412804e+00 1.7444661433967571e+01 1 0 0
4458 179 5 1.2927600000000000e-01 1.7585099639244652e+00 8.4965132376890296e+00 1.6193876620234629e+01 1 0 0
4475 179 17 -4.3852799999999997e-01 2.6521260751048699e+00 1.4203580501146706e+00 1.5091644060982967e+01 1 0 0
5321 242 16 -1.2154300000000000e-01 1.1514679058460136e+01 1.3034062009503682e+01 1.2274534425122388e+01 1 0 0
4469 179 5 3.5274699999999998e-01 1.9446795461509327e+00 3.4220884128913278e+00 1.7281975012952088e+01 1 0 0
1284 52 5 -2.9166999999999998e-02 1.1530888817865300e+01 3.3827477531815910e+00 1.3649429887784281e+01 1 0 0
3400 136 17 -4.3852799999999997e-01 8.2009882108947707e+00 7.6581825266739258e+00 2.2761221260298523e+01 1 0 0
5833 285 1 1.2388399999999999e-01 4.3018260249164211e+00 4.9216248436932162e+00 2.5824101766554932e+01 1 0 0
706 29 5 3.5249399999999997e-01 1.0635682270195181e+01 1.3444188094076736e+01 2.3251168756529296e+01 1 0 0
3394 136 5 3.5274699999999998e-01 1.0635173140302147e+01 9.4903856331984446e+00 2.2864962847475105e+01 1 0 0
5831 285 1 1.2872800000000001e-01 7.4419700338878956e+00 3.8473431528598514e+00 2.5077103900330684e+01 1 0 0
3397 136 10 2.7702800000000000e-01 8.2286372663339957e+00 1.0044419167087167e+01 2.3562460228100097e+01 1 0 0
1206 49 5 3.5249399999999997e-01 3.5542738405239787e+00 5.2531048381780057e+00 2.2268171106186948e+01 1 0 -1
5832 285 18 -1.6263000000000000e-02 6.2341843641801207e+00 5.3346605893550176e+00 2.5723614082733214e+01 1 0 0
1211 49 5 -5.4024000000000003e-02 3.5315944607211036e+00 4.1706783905528324e+00 2.1359193906556776e+01 1 0 -1
4453 179 7 2.1987100000000001e-01 3.2519804867712567e+00 1.0003629948184599e+01 2.1034902005456779e+01 1 0 0
701 29 17 -4.3856299999999998e-01 6.4360751372762088e+00 1.2503518220143480e+01 2.1234070249698910e+01 1 0 0
4455 179 15 -5.3320999999999996e-01 2.5952015171673009e+00 1.0981657587094180e+01 1.8963087093904640e+01 1 0 0
707 29 5 -8.4365999999999997e-02 1.0559852747091622e+01 1.3157779561415145e+01 2.4633712176694313e+01 1 0 0
5839 285 12 -4.1782000000000000e-02 8.4714638510176741e+00 4.3641937686651566e+00 2.3886316166777195e+01 1 0 0
4706 193 9 2.0065700000000000e-01 3.9835947530115665e+00 1.2184419925538052e+01 2.5394223492191138e+01 1 0 0
5838 285 12 -4.6766000000000002e-02 3.7847614184894645e+00 6.4037515754524250e+00 2.5599449157320507e+01 1 0 0
3395 136 5 -8.3880999999999997e-02 1.0553585666983373e+01 9.4913723458915555e+00 2.1372120330094475e+01 1 0 0
1649 66 9 2.0794499999999999e-01 1.0537156547227072e+01 1.3215246209390420e+01 1.8967247155210430e+01 1 0 0
1210 49 5 -1.6657000000000002e-02 4.6748861677416782e+00 3.3479770363871841e+00 2.1236193543810806e+01 1 0 -1
5102 224 18 -2.6483000000000000e-02 6.1944944983636692e+00 8.5155813539322764e+00 1.8808812594648987e+01 1 0 0
5099 224 1 1.2872800000000001e-01 7.9488519860581333e+00 6.0636924096107636e+00 1.8992473018479782e+01 1 0 0
5829 285 4 1.4866499999999999e-01 4.8486549627585074e+00 1.7859733803804443e+00 2.4574877593083979e+01 1 0 0
3152 127 9 2.0782100000000001e-01 2.3186893027278854e+00 1.3485253114119477e+01 2.3008349092145995e+01 1 0 0
3383 136 5 1.2927600000000000e-01 1.0592289985296771e+01 9.9947661328600717e+00 1.8321048736935122e+01 1 0 0
3396 136 15 -5.3294100000000000e-01 9.6232027485240312e+00 9.8657279466561700e+00 2.3792146746572250e+01 1 0 0
5830 285 18 -3.6103999999999997e-02 6.8039398270988416e+00 2.0745115147921207e+00 2.4451156176763657e+01 1 0 0
5107 224 12 -4.1782000000000000e-02 7.6159655526643304e+00 4.5824575279432525e+00 1.8631734445030489e+01 1 0 0
4452 179 9 2.0782100000000001e-01 3.7453561945257543e+00 8.5261300418686208e+00 2.0704509486335294e+01 1 0 0
3398 136 7 2.2020899999999999e-01 7.4652727592641943e+00 8.8388803799753397e+00 2.2996033157611162e+01 1 0 0
1208 49 5 1.2927600000000000e-01 5.3423783659932962e+00 4.0999895567586684e+00 2.3675035540901753e+01 1 0 -1
1209 49 5 -2.9166999999999998e-02 5.6452760089300620e+00 3.5375930057161487e+00 2.2268291607718712e+01 1 0 -1
5834 285 18 -2.6483000000000000e-02 3.4972629427657989e+00 3.1228364540679183e+00 2.5130106296761245e+01 1 0 0
4451 179 17 -4.3856299999999998e-01 3.6965402659605164e+00 1.0948918698029191e+01 2.1959168718370726e+01 1 0 0
5098 224 18 -3.6103999999999997e-02 6.8563688651479042e+00 6.4726272720134199e+00 2.0010580306613221e+01 1 0 0
5097 224 4 1.4866499999999999e-01 6.5585281795733943e+00 7.9218695011387457e+00 2.0238004761265032e+01 1 0 0
3399 136 9 2.0794499999999999e-01 6.0140809802283091e+00 8.9646658447806473e+00 2.2711981407899380e+01 1 0 0
1205 49 15 -5.3320999999999996e-01 2.4475078214912651e+00 5.9884037268569195e+00 2.2569847465667689e+01 1 0 -1
3384 136 5 -2.9166999999999998e-02 8.4343728106884690e+00 1.0878797033977806e+01 1.9168408761748992e+01 1 0 0
5103 224 16 -1.5326799999999999e-01 5.4536945513213801e+00 8.1752406486917337e+00 2.1219205292837565e+01 1 0 0
3385 136 5 -1.6657000000000002e-02 7.2440832755765951e+00 1.1259823970975107e+01 1.8140312644736657e+01 1 0 0
1207 49 5 -8.4365999999999997e-02 4.7635390766670191e+00 5.3621630068728088e+00 2.3006016594131843e+01 1 0 -1
5108 224 12 -4.5268000000000003e-02 9.1888531811043759e+00 5.9460110708188276e+00 1.9729234882034334e+01 1 0 0
1627 66 9 2.0782100000000001e-01 4.5215375450046214e+00 1.3653057830989249e+01 1.9123427256971077e+01 1 0 0
703 29 7 2.1987100000000001e-01 7.3614487851593289e+00 1.3567001776588983e+01 2.1238585318577723e+01 1 0 0
4454 179 10 2.7735300000000002e-01 2.0907445708708678e+00 1.0512804900771481e+01 2.0161652940114507e+01 1 0 0
4935 210 16 -1.5326799999999999e-01 2.9478173891345714e+00 1.3718784934336004e+01 2.4775620992782940e+01 1 0 0
704 29 10 2.7735300000000002e-01 8.2651842197685941e+00 1.3631859631942431e+01 2.2476434352696160e+01 1 0 0
4843 202 12 -4.1782000000000000e-02 9.5718112334448211e+00 1.5984249985407941e+00 2.0862314688826022e+01 0 1 0
5840 285 12 -4.5268000000000003e-02 8.7241558505225587e+00 3.7331964120636187e+00 2.5974014721671047e+01 1 0 0
4708 193 10 2.5545200000000001e-01 2.0729971071286477e+00 1.0594710788315128e+01 2.5904415481007316e+01 1 0 0
402 17 9 2.0782100000000001e-01 5.5303032923324871e+00 8.8016495075278076e+00 2.8503921839077798e+01 0 1 1
405 17 15 -5.3320999999999996e-01 8.1584233170111258e+00 7.4240194052539765e+00 2.8543106689050347e+01 0 1 1
406 17 5 3.5249399999999997e-01 9.2171611255717476e+00 7.0199432301702318e+00 2.9196343074025769e+01 0 1 1
411 17 5 -5.4024000000000003e-02 9.1143933258828262e+00 5.7752717881649804e+00 2.9790522428740292e+01 0 1 1
1213 49 13 1.4437000000000000e-02 5.9763369469947216e+00 3.7104258984425713e+00 2.8090831626332509e+01 1 0 -1
5469 255 4 1.4866499999999999e-01 5.7646232575888900e+00 9.7769142523276642e+00 3.0795602471072090e+01 0 1 1
5470 255 18 -3.6103999999999997e-02 4.3520632089809883e+00 1.0408745366129649e+01 3.1248052722123266e+01 0 1 1
5471 255 1 1.2872800000000001e-01 4.3581271987995915e+00 1.1873137095739983e+01 3.1796416129287554e+01 0 1 1
5474 255 18 -2.6483000000000000e-02 6.7688450317889419e+00 9.8457940391012695e+00 3.1962059558184848e+01 0 1 1
5475 255 16 -1.5326799999999999e-01 5.8261843466279624e+00 8.5394494268558354e+00 3.0014229490580366e+01 0 1 1
5836 285 3 8.6193000000000006e-02 3.3748446283556470e+00 5.2481027072620279e+00 2.7108070481631341e+01 1 0 0
2002 81 9 2.0782100000000001e-01 4.9020063722729308e+00 7.1080577486949101e+00 3.0594312115531753e+01 0 1 1
2003 81 7 2.1987100000000001e-01 5.1563807623117377e+00 6.5641654450626525e+00 3.1948757165840039e+01 0 1 1
2001 81 17 -4.3856299999999998e-01 6.3751941038186333e+00 6.1698661763253524e+00 3.2492397750044631e+01 0 1 1
2004 81 10 2.7735300000000002e-01 3.8551401499104401e+00 6.2445004271110127e+00 3.2758961786964548e+01 0 1 1
404 17 10 2.7735300000000002e-01 8.0313506506391175e+00 8.5855128598427157e+00 2.7615588539102564e+01 0 1 1
403 17 7 2.1987100000000001e-01 6.5642564009736324e+00 9.1971057856749034e+00 2.7494583434926533e+01 0 1 1
5473 255 1 1.2388399999999999e-01 6.9570041359020385e+00 1.1239051581670045e+01 3.2608072548816182e+01 0 1 1
5476 255 3 8.6193000000000006e-02 7.9446965856617595e+00 1.2043017311801423e+01 3.1719373375492363e+01 0 1 1
5472 255 18 -1.6263000000000000e-02 5.5382957320650750e+00 1.1951108675480725e+01 3.2876880958817509e+01 0 1 1
716 29 5 -3.0866000000000001e-02 9.1941559038019722e+00 1.2467363667345383e+01 2.7877145100962409e+01 1 0 0
410 17 5 -1.6657000000000002e-02 1.0210877372549573e+01 5.0709506056812597e+00 3.0304545035400224e+01 0 1 1
407 17 5 -8.4365999999999997e-02 1.0471084198046398e+01 7.7254842108574318e+00 2.9275283155459690e+01 0 1 1
4705 193 17 -4.4213799999999998e-01 3.3802174333215245e+00 1.1360800896858759e+01 2.7882728183226845e+01 1 0 0
4926 209 12 -4.6766000000000002e-02 7.0973673852031753e+00 3.1237264969354022e+00 3.1807442452950379e+01 1 0 -1
1214 49 13 1.2515999999999999e-02 4.5552670442637826e+00 2.5873000416907281e+00 2.7793413541927681e+01 1 0 -1
5480 255 12 -4.5268000000000003e-02 4.6922867155053183e+00 1.2857651103471209e+01 3.0631915383678461e+01 0 1 1
715 29 5 1.2956200000000001e-01 1.0485077654884558e+01 1.3153515204418884e+01 2.7639852922679243e+01 1 0 0
717 29 5 -1.7661000000000000e-02 7.9709177230410395e+00 1.3147859965678476e+01 2.7642516570046169e+01 1 0 0
2005 81 15 -5.3320999999999996e-01 3.7628599888532026e+00 7.3332725195031347e+00 3.3624960206235436e+01 0 1 1
5693 273 16 -1.2154300000000000e-01 1.0899831695666375e+01 1.1101069830141125e+01 3.1069513613799892e+01 1 0 0
5479 255 12 -4.1782000000000000e-02 2.9474871569736560e+00 1.2192718345637905e+01 3.2455878921586034e+01 0 1 1
4927 209 12 -4.1782000000000000e-02 2.4858163272506006e+00 2.7767764635467311e+00 3.3621868117200535e+01 1 0 -1
4376 176 17 -4.3856299999999998e-01 3.1789278478279170e+00 4.2247721242640619e+00 3.0502558408214846e+01 1 1 0
409 17 5 -2.9166999999999998e-02 1.1440677786008694e+01 5.7648646593541075e+00 3.0397390693173403e+01 0 1 1
4921 209 1 1.2388399999999999e-01 6.5172421968330578e+00 2.3532198428176478e+00 3.3007953221995209e+01 1 0 -1
4920 209 18 -1.6263000000000000e-02 4.8819879694152473e+00 2.2681367469676106e+00 3.2820840554282668e+01 1 0 -1
5692 273 3 8.6193000000000006e-02 1.1403979829087687e+01 1.2491288632904610e+01 3.0955015649175202e+01 1 0 0
1215 49 5 1.2956200000000001e-01 6.4013480106171494e+00 1.4997972276312745e+00 2.7189171510878435e+01 1 0 -1
1212 49 2 -8.7053000000000005e-02 5.6565028993987152e+00 2.9686162917507857e+00 2.6606573472654176e+01 1 0 -1
5477 255 16 -1.2154300000000000e-01 7.9381091052187243e+00 1.3500565792929574e+01 3.1952419172951821e+01 0 1 1
4704 193 7 2.2081200000000001e-01 3.2467871232515360e+00 1.1401980355628821e+01 2.6489296901413759e+01 1 0 0
5837 285 16 -1.2154300000000000e-01 2.0284861196768036e+00 4.6528269142812047e+00 2.7142623350249231e+01 1 0 0
4378 176 7 2.1987100000000001e-01 1.9047605032517527e+00 4.0172710283482393e+00 2.9900870188496871e+01 1 1 0
4380 176 15 -5.3320999999999996e-01 2.3404982370983056e+00 1.6177744083482692e+00 3.0318093030774147e+01 1 1 0
5694 273 12 -4.6766000000000002e-02 1.0890767076012409e+01 1.3137948652533233e+01 3.3404512672513029e+01 1 0 0
5478 255 12 -4.6766000000000002e-02 7.7364322435120210e+00 1.0971860631416067e+01 3.3946354911634799e+01 0 1 1
3310 133 5 -1.6657000000000002e-02 1.1557097531716169e+01 4.0764865506728967e+00 3.3401177877057556e+01 1 0 -1
3309 133 5 -2.9166999999999998e-02 1.1149079850154219e+01 2.8608519717734620e+00 3.4013432221291310e+01 1 0 -1
401 17 17 -4.3856299999999998e-01 6.4377618984693932e+00 1.0231253720598518e+01 2.6575689696470985e+01 0 1 1
4919 209 1 1.2872800000000001e-01 3.9563676013346645e+00 2.4215269394504535e+00 3.4117871919291431e+01 1 0 -1
4922 209 18 -2.6483000000000000e-02 6.9970144878357834e+00 3.2186847685901312e+00 3.4192301966985326e+01 1 0 -1
3311 133 5 -5.4024000000000003e-02 1.1486463086657354e+01 5.2405653087733279e+00 3.4213832678448128e+01 1 0 -1
3320 133 5 -8.3880999999999997e-02 1.1299649566291372e+01 1.4487212058430834e+00 3.9093955785771257e+01 1 0 -1
1438 58 13 1.4437000000000000e-02 1.7741426206859545e+00 3.2947525446903079e+00 4.1740594367571688e+01 1 1 0
1434 58 5 -2.9166999999999998e-02 1.5732672575465769e+00 4.2849570176269207e+00 3.8680554066171581e+01 1 1 0
3308 133 5 1.2927600000000000e-01 1.0771044648575621e+01 2.8728783051171463e+00 3.5551390974215977e+01 1 0 -1
476 20 17 -4.3856299999999998e-01 1.8956593124126824e+00 9.0990395420632844e+00 4.1745650096870051e+01 0 1 0
2006 81 5 3.5249399999999997e-01 2.6124102159314337e+00 7.6797530599167203e+00 3.4291048032375599e+01 0 1 1
1435 58 5 -1.6657000000000002e-02 2.3671055021083576e+00 4.8728630539904962e+00 3.7671124629348824e+01 1 1 0
478 20 7 2.1987100000000001e-01 2.2498217787375263e+00 1.0501393496425216e+01 4.1645012372138396e+01 0 1 0
2011 81 5 -5.4024000000000003e-02 2.6937608700835876e+00 8.8135213311912217e+00 3.5229179280296776e+01 0 1 1
3903 157 7 2.1987100000000001e-01 5.8994914458399279e+00 2.3923314576296146e+00 3.8372406145319815e+01 1 0 -1
3304 133 10 2.7735300000000002e-01 8.7624766988557123e+00 6.9057370466630283e+00 3.4975943981395474e+01 1 0 -1
197 8 10 2.7702800000000000e-01 1.0518626556728181e+01 9.8448026041876560e+00 3.7034061271249783e+01 0 1 0
3305 133 15 -5.3320999999999996e-01 9.9699064023766883e+00 6.4684983208917464e+00 3.5587683736830868e+01 1 0 -1
1436 58 5 -5.4024000000000003e-02 2.9669978671006745e+00 6.1187569933684154e+00 3.7903718818352360e+01 1 1 0
3306 133 5 3.5249399999999997e-01 1.0621483204769843e+01 5.3202322713171455e+00 3.5341716057648000e+01 1 0 -1
4918 209 18 -3.6103999999999997e-02 4.5995609838683098e+00 3.4213950855537711e+00 3.5122804375178021e+01 1 0 -1
3302 133 9 2.0782100000000001e-01 6.4542826645274509e+00 6.1989711520116302e+00 3.5811964160546964e+01 1 0 -1
3303 133 7 2.1987100000000001e-01 7.6910826209736687e+00 7.0056255318895619e+00 3.6029069706997731e+01 1 0 -1
4917 209 4 1.4866499999999999e-01 6.1343454844507272e+00 3.1253929304671275e+00 3.5507373890603830e+01 1 0 -1
4923 209 16 -1.5326799999999999e-01 6.5816373915913777e+00 4.1109437527203649e+00 3.6478316080349202e+01 1 0 -1
3301 133 17 -4.3856299999999998e-01 7.7703612133951925e+00 8.1397932355133147e+00 3.6893047335478940e+01 1 0 -1
3902 157 9 2.0782100000000001e-01 6.0136255951481852e+00 3.9342272089780641e+00 3.7974427401382570e+01 1 0 -1
190 8 5 1.2956200000000001e-01 7.5363636554154683e+00 1.2365944574786745e+01 3.9093137862272542e+01 0 1 0
191 8 5 -3.0866000000000001e-02 7.8907945942374793e+00 1.2670372128068133e+01 4.0477618235624590e+01 0 1 0
194 8 5 3.5274699999999998e-01 9.6085032394527641e+00 1.1035541238484091e+01 3.8960927281822180e+01 0 1 0
195 8 5 -8.3880999999999997e-02 8.4429500815538212e+00 1.1579155976358699e+01 3.8334114821624510e+01 0 1 0
1427 58 9 2.0782100000000001e-01 7.0693395821720646e+00 7.2071750763799258e+00 4.0110827718738449e+01 1 1 0
1428 58 7 2.1987100000000001e-01 6.0219997481464693e+00 8.2088416836993083e+00 4.0176489774275794e+01 1 1 0
3307 133 5 -8.4365999999999997e-02 1.0311504706925259e+01 4.1831394155345372e+00 3.6031831116265622e+01 1 0 -1
1429 58 10 2.7735300000000002e-01 4.9615550497216159e+00 8.0749970872084749e+00 3.9097022094548990e+01 1 1 0
5801 282 16 -1.2154300000000000e-01 8.2268089413085654e+00 7.7530080218085571e+00 4.0453684024793162e+01 1 0 -1
5800 282 3 8.6193000000000006e-02 9.4016641983568050e+00 7.2904551855723430e+00 3.9610870709742414e+01 1 0 -1
1430 58 15 -5.3320999999999996e-01 3.6940936666981550e+00 7.8015544846757825e+00 3.9564804627664373e+01 1 1 0
5798 282 18 -2.6483000000000000e-02 1.0378749285492093e+01 5.2062972689507525e+00 4.0915720729542272e+01 1 0 -1
1431 58 5 3.5249399999999997e-01 2.8725404472974638e+00 6.8069518951651435e+00 3.9161671307048437e+01 1 1 0
775 31 17 -4.3852799999999997e-01 6.6751013920916993e+00 4.2045315512616135e+00 4.1067710681505815e+01 1 0 -1
5797 282 1 1.2388399999999999e-01 1.0672748063478235e+01 6.6224874479993652e+00 4.0312125118852947e+01 1 0 -1
1426 58 17 -4.3856299999999998e-01 5.9446694302180871e+00 9.3996830188691476e+00 4.0934180544351946e+01 1 1 0
192 8 5 -1.7661000000000000e-02 8.8788694231346970e+00 1.1952032202844633e+01 4.1143382347742175e+01 0 1 0
193 8 5 -5.4339999999999999e-02 9.8973433570675731e+00 1.1318248345764458e+01 4.0384931001873028e+01 0 1 0
196 8 15 -5.3294100000000000e-01 1.0678769027421984e+01 1.0399108813134509e+01 3.8288118816532958e+01 0 1 0
187 8 2 -8.7053000000000005e-02 6.2584492704980432e+00 1.2993544174641048e+01 3.8419416183114350e+01 0 1 0
188 8 13 1.4437000000000000e-02 5.2147670997466626e+00 1.1891236941793437e+01 3.8102063295787787e+01 0 1 0
1432 58 5 -8.4365999999999997e-02 1.8516161960929516e+00 6.3544210756809836e+00 4.0035137497077059e+01 1 1 0
189 8 13 1.2515999999999999e-02 6.5327284871037348e+00 1.3290559628374210e+01 3.6848974737689289e+01 0 1 0
479 20 10 2.7735300000000002e-01 3.5779494586578076e+00 1.0879477206804973e+01 4.2194820513525826e+01 0 1 0